<?xml version="1.0"?>
<VTKFile type= "UnstructuredGrid"  version= "0.1"  byte_order= "BigEndian">
<UnstructuredGrid>
<Piece NumberOfPoints="5123" NumberOfCells="5123">
<PointData Scalars="Pressure" Vectors="Velocity">
<DataArray type="Float32" Name="Pressures" format="ascii">
      -2391.77359793
      -24981.33710568
      -28591.05665548
      -25493.28008765
      -24261.99582305
      -28560.32273856
      -29272.80775739
      16353.40357536
      12476.63367652
      -23569.16128140
      2331.55011017
      -22140.43487678
      1005.00088081
      12188.69558430
      -20993.64946475
      17508.14309877
      17643.78285504
      -27025.94562458
      9437.98280366
      16715.85269561
      2942.56437052
      9110.44298782
      11215.24790626
      3202.69890001
      -11407.16846223
      9220.80400923
      7145.24258607
      -5264.19068791
      13321.48240063
      8679.53164548
      7728.22873644
      8755.15917103
      4418.28264184
      3233.21103939
      4460.61662663
      9154.75645661
      1709.64644665
      6201.41850269
      -553.90736667
      282.65312631
      5429.18717680
      1106.64608230
      -2305.31813248
      3206.76391901
      3238.28852669
      5669.82487636
      1289.12697585
      -1743.17970279
      -1471.05054879
      -894.32950571
      2109.01741329
      3552.07424683
      -556.86801729
      871.10827372
      -4143.51493346
      532.30800159
      10.06731761
      -275.13051034
      -338.42194661
      171.03727990
      1533.46514162
      -1.26091093
      -760.53623152
      125.08944250
      374.15374415
      103.35958492
      23128.70903289
      18454.35775062
      5782.83041702
      6576.72705320
      5480.96333639
      2542.67195494
      8508.57798743
      15135.64165221
      15526.56818292
      8420.79330227
      8818.69256914
      10135.85547005
      7078.25026775
      4235.12898274
      7163.63114452
      8153.09580470
      2555.69869764
      7542.40088002
      6820.13269289
      6817.62122731
      2948.37259574
      5412.85757318
      3642.16387940
      3677.36023372
      -752.90312035
      1635.12042253
      9670.70031000
      6275.94266719
      3478.78573128
      1855.47729510
      354.08293236
      3141.31380327
      4092.50445193
      6390.91717621
      2190.11476277
      9190.47037933
      -564.83280494
      2268.04156522
      1390.60922687
      8450.02739315
      8471.77822070
      2297.42503094
      38.52588688
      1271.98792613
      5703.31269366
      1239.36486981
      4456.23958075
      -3686.14446227
      9737.18072298
      -1479.73796319
      4496.72637657
      -3078.83224818
      587.75853876
      891.87886865
      8022.86835126
      -4851.36310563
      13164.61216983
      -3436.23314819
      -5114.55538509
      713.05968787
      -78.78610299
      -8068.91045895
      849.58064708
      -2796.79824119
      -2353.73825928
      700.50189104
      16830.10823148
      8031.64969847
      3091.70160967
      2127.26277468
      2737.96676973
      6879.20564656
      13925.45152677
      10223.37040706
      7322.42286797
      15867.86949800
      10865.79231065
      10639.51306251
      12745.56853293
      9445.65944236
      11934.71859610
      13443.49166435
      17834.11820790
      5710.59760269
      12528.84782501
      12854.22337023
      10866.38823591
      6345.45080197
      9791.42616959
      2976.11009036
      15473.57323822
      8195.62750130
      6284.35218627
      3443.66219369
      2367.83861391
      3640.96330444
      7818.28341334
      6348.13884007
      4012.82599552
      8335.37558033
      1918.60881644
      6193.46296335
      8201.54857041
      7382.66827411
      -3338.66691223
      8642.30481009
      7383.44028216
      5585.21166872
      5131.55198511
      5913.79146757
      -1633.57498373
      5755.51250669
      7839.70480700
      3795.47807625
      -374.85729891
      2772.91338100
      5416.59986762
      2573.80965181
      1805.59584750
      -1908.86480094
      4103.65945261
      -442.28967346
      4117.05241339
      769.07844189
      4150.48921153
      -92.19821084
      777.70475217
      -3192.16817393
      1922.94178768
      392.48665244
      -2455.99823956
      -30.34039899
      -18716.99888393
      7802.68655914
      7910.30722391
      7328.56788991
      4899.73721669
      3912.78332134
      22465.57543316
      10916.84256028
      3081.02744807
      2852.21224495
      17668.36787630
      9707.10960054
      13233.58615149
      17332.30726910
      15170.41965243
      6899.45368366
      7098.13590899
      15409.91530885
      11665.36932997
      6278.92632902
      11288.82731316
      11059.66591372
      11519.74522671
      11734.59797148
      4753.02802967
      10506.57784297
      7935.95914765
      5199.44591675
      7600.38571247
      8395.37034014
      8038.98182264
      7620.85938006
      2646.69868421
      3935.33882209
      5768.52980080
      9084.03382990
      10006.17540084
      6617.77101215
      289.54439327
      9091.51460725
      8129.70224498
      4805.44689118
      1686.35351202
      9825.87185065
      2432.13750393
      6124.38795431
      5992.79089798
      4171.75829865
      4317.54223959
      5315.26487090
      4664.11433558
      2824.22478609
      2113.83083021
      2271.23658170
      1835.32190139
      1184.39528789
      -235.13530521
      3872.12345763
      1567.42784918
      4910.68425822
      3656.20891326
      3389.91834001
      -1654.61435181
      830.83745065
      582.90814243
      -637.61922499
      -27399.67254656
      20522.16842105
      22513.62743776
      24107.47908571
      12481.33677499
      8017.29446663
      12287.53809273
      18599.45122872
      24389.34504014
      5435.99508201
      4736.71305096
      5789.30387509
      12779.08555682
      12544.94162586
      13932.94626373
      14541.76935506
      11937.07821849
      2177.14379908
      10690.71961522
      15099.64826438
      12619.69403200
      10381.05118569
      13530.50075156
      -829.53000026
      6232.19293753
      7403.96027765
      12714.76336020
      14680.98423040
      6050.80732125
      5090.92197275
      3820.44073679
      8405.47988447
      9427.57182552
      3404.62753377
      9980.49228531
      3745.58976579
      16383.27526063
      6014.61128941
      7887.30287504
      1825.79537434
      7921.77933642
      6082.80014643
      7827.43715443
      6142.64093751
      9958.44208821
      5132.45824280
      3397.32782315
      2087.38827085
      5932.62296020
      9420.24688991
      7098.65559725
      1765.15826185
      -843.78794538
      3879.99797799
      1382.74264975
      7669.46209067
      5826.94653837
      -2944.83125272
      4521.04964960
      4065.94332179
      4486.17165682
      3193.06616011
      2259.24192793
      754.15580016
      -1674.87275817
      -719.80980778
      -20980.90566408
      5429.16904942
      13755.79353395
      10014.07697935
      6658.51827855
      10964.29735474
      16128.65561616
      32912.20318052
      8267.61669222
      10021.87117262
      10828.93650889
      3017.15446212
      8345.64947107
      9366.59070097
      15096.99739912
      19327.75878775
      11704.89561097
      10520.15830069
      13332.75038567
      9335.08311750
      4552.63141987
      5792.30437216
      21527.51829260
      8616.99226484
      12631.60485402
      7953.79733445
      1827.15765221
      5684.58983046
      10915.30758897
      7671.27557746
      7329.11498671
      8941.16672353
      9862.48453746
      6875.99500165
      3069.64051247
      4168.02145040
      11941.70373324
      5632.50563826
      5624.00825044
      730.03436693
      3542.16790799
      9938.99032726
      8195.87814581
      2083.27790646
      6406.04778526
      4695.07462755
      7319.76597803
      9570.02368348
      2172.60857831
      3579.19028167
      2878.34122995
      4967.83072524
      9127.10183944
      4724.12965084
      2225.09844070
      6952.57106435
      4461.27671343
      2457.75479671
      1354.66063754
      4632.71879941
      1888.60312139
      1892.37420998
      2387.04409822
      1319.09763366
      125.28905552
      101.71742138
      -22938.24798431
      2102.24695971
      10622.50820229
      10830.44067682
      161.94878033
      9243.57255270
      10715.52319279
      8705.71291866
      6317.78690905
      8319.89038006
      21741.35160644
      6216.06113796
      7638.22571419
      5852.22022432
      12119.15390091
      11811.43812661
      8668.27170461
      7056.20831742
      18531.44342313
      9333.82547624
      13212.45948661
      6100.73535883
      2238.29745760
      2972.44061878
      8198.87069334
      16541.83532523
      16090.76407968
      -141.55903007
      10273.73810726
      3562.22690807
      7117.08830260
      11163.12903740
      5839.51505262
      7217.84145437
      2718.81834546
      7547.05577788
      10903.39888124
      7272.37511366
      9322.29216474
      7753.93910916
      1001.18043228
      6879.63973668
      9685.16249246
      7635.35744749
      6643.52280940
      5112.84572095
      3815.09353164
      5677.56246418
      8929.32797310
      6734.78155393
      4457.84632011
      7047.89235782
      5007.86736143
      5855.58541346
      1358.93917352
      5637.09425324
      6243.48005216
      4486.79517194
      2689.97770452
      4828.86500570
      330.83111340
      2413.41695339
      2881.82239416
      1148.31751224
      1336.88843853
      -361.81581337
      16062.85509275
      25969.43443227
      13421.53023483
      3817.94306769
      12812.59811436
      7475.14819022
      9045.85858830
      8123.36637629
      14980.71349757
      10156.30737947
      15863.95083051
      9664.61192002
      9309.49143778
      5190.04212810
      6727.40449348
      13052.37918721
      5776.36107909
      8005.65939730
      9855.42721470
      9327.56508036
      18068.99701960
      13100.57499441
      7340.15375526
      9488.62181839
      9018.25392110
      2743.52446353
      9691.91728749
      12989.41947898
      11059.53303965
      11924.72855263
      4068.07095872
      4996.04607185
      9766.49573911
      10248.18878649
      12849.18287683
      10014.83148021
      3086.57287697
      3600.47758483
      9643.18040596
      5286.85555242
      10891.15712191
      6391.32506862
      4480.17889457
      7815.03302907
      7449.52887334
      8153.01113698
      6249.33143983
      3616.81539696
      8364.34728148
      12365.98246731
      5128.81355339
      5564.61573242
      9287.07990174
      4381.68430568
      5436.31763275
      2070.33429070
      4765.57069074
      5844.34351324
      2759.75092224
      5868.67716303
      -1644.93688112
      3843.39101345
      3643.78953490
      42.68683004
      1740.02575431
      830.91682381
      -21336.21804100
      18234.89513423
      8038.36150769
      16056.97868139
      7432.57765722
      10734.75501669
      3547.98656357
      11340.52194426
      11742.75822523
      9023.90067240
      13512.41922039
      10336.40282763
      12102.79805542
      6658.61397246
      12661.19258950
      6086.93016565
      12544.81395770
      6369.84580601
      8625.05108214
      10324.31167324
      11128.90448461
      13287.24665769
      7670.44494400
      7666.18445178
      9871.94859984
      7781.40383819
      4623.24592315
      6829.11248306
      10659.29808572
      17574.06158223
      1640.78897042
      4225.02719948
      6345.55549697
      8403.39431275
      9207.36710065
      5188.88940607
      5140.59976079
      9886.65922161
      6128.59405455
      5576.72506222
      10812.11577630
      5421.23353099
      6108.74709891
      5531.38978499
      7373.75880090
      10158.62701746
      8734.80524488
      4184.02223066
      6325.51109706
      6133.95873278
      13067.23768318
      652.61189696
      4560.66532045
      4039.30375363
      6865.99332686
      3153.63798404
      5033.29595681
      3387.19854127
      2334.04065072
      815.38732934
      636.29261422
      1918.07916802
      428.67160982
      1784.77265229
      -2480.63483723
      -272.82542836
      18113.31330767
      54574.30103472
      34337.40522473
      12518.37993149
      14011.62452423
      16634.31746105
      16804.43503288
      9389.73020446
      10960.94285980
      6986.76891865
      9560.60818212
      19222.31655738
      12811.54589319
      8983.15038457
      1513.92466170
      8141.59663437
      7900.91622248
      2164.00875089
      23207.96100073
      5610.81387724
      4283.80474338
      8603.11147990
      10540.89824940
      4563.44239765
      1585.42257019
      9441.77641515
      9072.60717652
      8781.70527725
      3911.90419571
      8874.33112626
      4769.52146330
      7661.05101509
      8538.66253933
      2466.82907140
      5131.59864660
      3452.66038321
      8901.32931981
      5414.53981028
      -66.65784155
      4642.27199103
      14916.81619855
      12956.68730441
      5409.75466881
      5113.69079892
      4196.03668238
      11307.73755056
      8744.15916029
      4903.82339397
      6294.96398050
      7733.28067374
      9073.90178210
      6735.70990908
      2017.11534443
      5892.17993169
      3533.86663100
      5403.60973522
      1890.61025552
      4130.68976402
      3545.14690328
      655.39637209
      677.33747576
      593.09411733
      -149.80819775
      2073.82386473
      -1039.60150549
      -1792.98127432
      -18378.22992136
      14419.14019921
      7195.01481982
      8974.22160784
      13167.26262001
      11669.63107156
      10399.36345540
      15305.98960658
      7846.17502932
      5220.68234175
      8210.50629482
      1826.99499775
      3314.57649326
      8313.75525607
      6411.56032300
      7219.90502684
      10108.32607101
      4082.27750024
      2176.82376526
      4659.89028319
      9782.77955382
      4972.19353124
      8778.58874190
      14870.97086698
      549.11787508
      4515.02183979
      5638.67389049
      13072.32835831
      4412.47508863
      3213.21720887
      11917.71079575
      9154.78627770
      7684.38642584
      -623.29569552
      6193.87095834
      7635.90020956
      4133.25948248
      12178.38778501
      8295.78314524
      2419.74135317
      11018.60916856
      6043.35073501
      9647.11052029
      6824.02323821
      8855.75030923
      6234.10424250
      7235.52414680
      7518.97900803
      6069.02896345
      6358.86106765
      5273.95179057
      8633.85956922
      1813.27057284
      3440.92333649
      3557.87561598
      4937.26050935
      4217.24037703
      1434.60169156
      2862.35656030
      1642.34382657
      662.77812913
      3260.83271961
      20.84082194
      2354.44372510
      988.47015551
      -1026.29626220
      12477.11294729
      8660.82347307
      18661.82122735
      13483.00445219
      7779.52182727
      -1800.53580877
      14868.28195983
      16377.07470843
      11849.98290801
      18702.58419389
      3746.93102408
      9753.87671943
      9618.40444994
      6283.40973494
      11402.99324378
      12160.89768963
      15475.14767772
      12462.59700196
      5774.55805894
      15785.86328725
      4036.74052983
      3410.35108927
      14478.74148003
      8159.98072969
      4853.88247471
      13651.05720339
      6986.15228717
      6826.01037739
      7515.40515563
      6676.12909750
      7150.99558748
      8283.30216021
      11059.35927349
      6936.39279522
      3989.12636108
      6854.68609209
      12306.51407408
      16686.39210094
      5701.55391508
      4041.06489340
      8325.53966810
      10266.83717122
      9216.24339723
      8765.31276657
      7135.65527029
      7481.39041548
      9685.07287852
      13067.65870024
      4908.82831413
      3422.99720107
      6007.08945662
      7495.08368311
      2514.71059888
      5107.20284338
      4326.01431763
      8486.04027913
      6295.31112486
      1940.75832328
      3014.40640206
      3388.17703967
      -443.87904214
      1904.72274409
      -136.18410849
      883.58907544
      350.84713229
      -1420.55527963
      6958.56112833
      13064.19248539
      7916.82524061
      10664.19001457
      163.07861019
      4620.96619334
      529.83679539
      10823.44488544
      28801.49282064
      4547.85209405
      12472.97568650
      11188.07377310
      10393.57139250
      9512.68614526
      9047.82767326
      8510.63504302
      5034.78770987
      4761.10800505
      13259.87465556
      7304.73256536
      11403.93908895
      8082.16293118
      7459.29629731
      9688.13058608
      9106.28426951
      6276.98746096
      7583.31638515
      4647.22659160
      11848.35482631
      7861.07989411
      12285.52282236
      12431.58931406
      6809.49776716
      1765.64558979
      3593.56219930
      11010.83898065
      7401.28064865
      5610.59945260
      7039.73895079
      8622.83270121
      8888.30908372
      6870.91467163
      12646.00976848
      9772.46499389
      6132.82412473
      6941.32856503
      5459.77414732
      8440.53931635
      9730.70803117
      6861.70329074
      3292.74585923
      3764.05389296
      8286.46009178
      2191.07564167
      3133.04809558
      5241.49636239
      3920.75715968
      2603.73005797
      4118.45056757
      1189.04169770
      2368.76894285
      2736.75637007
      -241.47397195
      820.79873883
      -1354.97353297
      2126.92348516
      1123.86581078
      21545.90906041
      15450.04438066
      2824.98274015
      9423.29962545
      -4669.64027502
      21781.26209721
      -766.02146734
      13258.79879340
      21896.34704332
      11696.64149066
      9436.81448325
      9192.15907680
      -378.80008012
      18354.70470058
      5916.28741271
      19792.57709891
      6544.39109507
      5115.90448895
      6236.84349033
      13283.61789104
      6062.18477973
      11747.62164066
      4735.71074387
      8584.51423746
      7731.19608929
      11713.93328868
      3632.66230394
      10028.19079928
      12218.49410297
      13359.04727833
      10251.44859294
      10936.85134276
      5114.72794371
      8490.69017052
      12448.77131097
      7927.75716622
      6938.99804141
      4866.00455952
      6563.26892333
      7673.75122330
      4331.17343085
      8979.94086347
      11655.72647147
      6135.19855854
      5513.66517726
      1442.01127417
      4122.38961920
      10374.58405062
      2303.30786514
      1865.92169351
      7750.41492508
      6616.67495663
      4592.81654677
      317.01316799
      1617.15720162
      3540.06891744
      1549.04557518
      3206.12116215
      -731.00105867
      -924.20875556
      325.28853964
      119.56061272
      1871.28480056
      -1412.79771580
      984.92719622
      17254.48306219
      8967.34147584
      5881.11775293
      10300.39702388
      10748.94486520
      13825.87602233
      -3534.32019949
      6148.13565557
      7272.17705628
      8017.77376902
      15352.70900103
      6698.25025076
      8127.32391794
      7293.92205531
      10911.01862948
      15654.69243004
      4843.34708182
      5893.28456910
      3509.98027871
      4814.14277467
      9011.32616234
      10072.94598847
      7907.56835527
      11411.27370919
      10937.05736496
      13010.28313967
      6145.59565894
      9128.51648948
      10217.93498762
      8855.16256212
      9378.23739965
      11001.29957944
      7514.84509643
      13728.28728860
      5313.62516932
      9168.55589338
      8081.18080261
      6923.55243682
      10287.49437910
      7855.19901541
      4883.20311645
      7582.60349559
      5344.42956604
      7324.56664939
      7990.50798492
      8955.81722616
      5310.60457430
      3420.73011779
      3812.00477508
      7795.97739764
      5422.56968767
      3198.57623816
      9096.39628331
      6873.00280824
      1416.30123475
      4215.54156764
      7577.56771411
      2108.00035928
      2795.50937907
      4468.91388048
      -295.37915270
      2263.15614801
      434.73688716
      1114.86757572
      -690.71510703
      491.05663812
      -28338.34729544
      13115.14337440
      17198.51795147
      12044.18472880
      14348.17519673
      8776.74303860
      15317.61402573
      -4245.67911322
      -1399.72587599
      8113.67942029
      3114.90697650
      3191.09548469
      15609.24461874
      4583.70959042
      6015.33397093
      6557.17435070
      6308.21543746
      7495.37856017
      8693.29751865
      9996.73382795
      10343.66491911
      4034.20712971
      10842.80139300
      10819.98726207
      8033.60205385
      5212.98571797
      9385.04495483
      10230.49788042
      9957.59821454
      3707.86690907
      10390.65556468
      9663.90246115
      9299.85192413
      5334.95797586
      13680.53763032
      691.51230323
      11840.57837096
      10893.17333507
      5341.59239446
      9534.32278468
      2407.94629618
      -806.62861895
      11175.05482993
      7065.93233478
      4181.34024075
      4919.00019848
      5767.03621293
      2817.29272157
      5944.58328091
      8940.71440217
      2036.50353926
      2140.27688377
      4322.91284748
      4400.26597532
      4333.51480733
      583.66242472
      3902.47922706
      670.95543189
      1826.03057082
      459.11433455
      -117.11733649
      201.85365411
      1078.53986097
      113.57724074
      0.55556500
      268.69392907
      14709.29195891
      16921.96013406
      14400.01964464
      10488.89944876
      22309.63580569
      11660.01259309
      320.18134861
      2739.98785560
      8708.51427327
      2988.17701182
      4972.95718179
      3703.16077630
      13110.36691336
      8964.97958409
      3570.20566420
      19097.95156571
      7292.88062761
      8629.76803854
      1992.00675975
      7948.75774794
      9896.84355100
      4571.84326117
      7310.70109475
      7066.94893711
      7622.86626037
      9110.77558875
      12714.83360377
      13545.15552845
      12718.47031746
      12353.39389370
      1816.56546451
      12799.93787895
      9237.98607797
      9279.73070915
      9158.12425345
      9297.28055355
      1480.59870774
      6858.82624801
      12391.84454405
      4858.99018482
      2618.19365932
      10148.89426959
      10756.84281480
      4980.94684430
      7524.69288547
      13526.39094382
      2166.46888448
      4157.11044909
      5541.58577499
      6666.22284412
      7677.13456943
      2324.68948963
      5081.05694257
      6941.54616008
      2308.34060463
      1140.11950435
      4498.93975648
      4460.04930787
      990.63302347
      3073.73438361
      3279.74018474
      2052.64224290
      -1384.23300180
      1219.95570269
      1082.45485210
      1635.21008009
      -29879.47616255
      12042.29407620
      10951.39389200
      6940.58440196
      23507.30296657
      16784.26207781
      11591.04234762
      4158.78796653
      18685.53349395
      9870.08754083
      19738.03406384
      -1344.85962577
      5417.51590212
      9031.84675777
      5766.91031990
      -5155.92067201
      7336.25342862
      12938.21982313
      4471.24820463
      8035.48993604
      5556.53228008
      1164.37924519
      8540.14976273
      9858.88087514
      8400.32351074
      2288.49695875
      11067.57646678
      7584.62401161
      6578.86821711
      9813.69394347
      7068.17888330
      7140.45578366
      7896.80984623
      8432.97262866
      11265.41215784
      17059.75345318
      8643.47677830
      308.58116204
      12178.03164247
      11894.04127460
      10695.15030702
      3662.80557224
      8600.23814553
      8303.25103752
      4435.54559507
      2179.80364378
      5365.13685019
      6408.28561364
      403.47135691
      7992.43639849
      7071.57185109
      5250.72818394
      2345.78986175
      4025.55036403
      8441.73755941
      4708.98464199
      2508.19015057
      2855.69225389
      3223.33695329
      2497.53485542
      1909.06257546
      2007.01162118
      1038.39882332
      -1813.57719484
      -1902.14828793
      55.83525942
      -22590.76828270
      18183.86819785
      11975.94923846
      5493.08236224
      15299.17337776
      10053.20403498
      13909.43759180
      3697.35766192
      8760.85942026
      2897.01858313
      12933.53697906
      -8700.18843727
      -12657.90468741
      9124.61668764
      13382.05832134
      16986.08331943
      5443.44431245
      11634.18619312
      4561.17250573
      4658.12212017
      -1036.36560115
      2809.06959981
      7023.59094550
      7202.44854028
      11829.86196390
      6818.28015599
      8041.58074421
      9091.45967670
      9472.31095158
      3558.36321062
      3613.67858457
      3860.17855328
      4735.94225819
      12059.19064468
      10348.99577629
      9861.34826737
      10262.98069634
      10700.96988633
      6889.75097113
      8622.61313834
      10676.49752830
      8756.00817969
      8732.74951521
      6201.63837194
      6784.63072057
      8587.90298400
      5933.15132955
      6967.65239245
      6332.83134191
      409.91826381
      2052.06140565
      6285.92780080
      909.03262699
      2470.80024765
      5106.01205726
      3598.54434206
      3246.75899007
      4416.07377062
      5448.88604864
      937.44593549
      862.65145161
      1601.08598908
      680.67451429
      -121.71705660
      832.31984029
      617.81083552
      -27218.63190594
      18243.94873922
      8298.12698752
      6292.03752914
      5303.12315892
      19602.30049861
      -6835.60068002
      3060.11135607
      3262.19990317
      22988.06170539
      -815.83975243
      9747.36367395
      10172.08835250
      16182.89441900
      4498.00597794
      10042.19699269
      8388.61682911
      360.66361865
      8482.64797368
      3554.26800916
      1705.43486237
      13697.92291488
      -8121.11096681
      5448.25508541
      3485.18792614
      9592.71943171
      7943.12234920
      5070.15398076
      3216.22708110
      13789.99461534
      6435.70922528
      -1574.53045479
      5658.58231993
      3528.18384588
      5413.31001139
      10642.28593968
      3033.24672269
      8283.78603586
      7753.09649605
      4989.46115157
      7411.92225028
      7326.03392955
      9370.27367264
      9384.22866694
      10339.57742695
      9223.62059158
      1447.11178433
      5734.10352736
      5203.55147294
      1185.45768248
      1662.55472592
      730.57949605
      7056.06331857
      4725.94301369
      2066.96755233
      1574.29185397
      5387.49039002
      1619.80843987
      1694.43243091
      4617.43161891
      2591.50873098
      4821.75906936
      2061.64317107
      -193.94768540
      -139.12029960
      1079.67085917
      18682.03226752
      11543.88470482
      7402.89420452
      3341.83345617
      14086.04268529
      7178.47516271
      9706.34525683
      -2757.75937277
      7488.88895557
      8154.52052440
      10528.03493518
      -9040.16918382
      1465.01389434
      4852.05196762
      8837.84651445
      5954.32063317
      8136.78248698
      2307.95344797
      6466.77076021
      7316.30896544
      4914.68529364
      -2046.90972832
      4911.18899011
      14652.56589431
      13797.72526160
      3877.28447950
      6762.67057796
      15562.08560568
      8942.23376574
      -1722.70135619
      5347.46530215
      5040.35860493
      1311.86818517
      1465.79970984
      2806.76651928
      6177.85753741
      4025.87138143
      6436.86294518
      5391.42219510
      3718.69178538
      4553.41802173
      7190.03533680
      1690.20868183
      5617.66878714
      3225.90709456
      1283.24368481
      3164.42221750
      5096.42586644
      7882.54975724
      3010.70607942
      2051.44203044
      6416.38269554
      7295.47174683
      929.19310177
      2200.68629770
      4614.11020488
      2693.28199714
      42.72340779
      5478.80900906
      4224.94382713
      1582.30926767
      554.12518089
      -855.48222944
      -2728.21614281
      -5315.76389710
      50.94353832
      -8937.49742940
      7578.52565662
      5506.75655791
      11185.44701994
      13199.25288133
      8564.30447030
      10018.12824877
      5194.41300230
      -899.45365764
      734.80703491
      1087.69799599
      10902.04489430
      13708.34203394
      -2448.50753532
      9702.35655207
      928.68538984
      16358.69668376
      11744.97424069
      5152.69487231
      3176.15330797
      11291.81250307
      2173.29243747
      9374.19277725
      9278.86838890
      2635.34580911
      -256.58795706
      4826.34319757
      2212.59184071
      1004.01510076
      10005.44672760
      2100.54497465
      8921.72920506
      2942.21620825
      2555.87005677
      512.60571850
      -1081.84255136
      8020.49720970
      4112.06566850
      6943.28387767
      4050.19011537
      7016.69172751
      1090.13294399
      793.99108471
      7664.23120688
      8028.25265375
      1690.52408000
      550.28003103
      -466.97447304
      7554.73326618
      5845.31729410
      5190.77426173
      5920.38862122
      2029.92029737
      7083.30342865
      4018.83554250
      1806.38715792
      663.44893487
      4284.89665815
      -190.15504354
      1200.69188624
      2221.27985868
      787.91797007
      315.42410724
      -583.86130402
      1398.11974777
      877.20849603
      -40161.08078057
      19777.15505723
      -1025.21427023
      25142.24858674
      4853.97634654
      5186.44199749
      5896.07606823
      185.64691826
      -3946.95462697
      13806.55431182
      11588.98411331
      -2104.84405333
      1432.37534170
      2954.68742093
      3914.93686761
      8137.07470870
      -3640.14031654
      3016.83433919