<?xml version="1.0"?>
<VTKFile type= "UnstructuredGrid"  version= "0.1"  byte_order= "BigEndian">
<UnstructuredGrid>
<Piece NumberOfPoints="5123" NumberOfCells="5123">
<PointData Scalars="Pressure" Vectors="Velocity">
<DataArray type="Float32" Name="Pressures" format="ascii">
      1190.74781731
      -17755.89440400
      -25178.86159460
      -25493.28008765
      -24261.99582305
      -28560.32273856
      -29272.80775739
      101.40594300
      758.37845260
      -23569.16128140
      -401.03820701
      -22140.43487678
      876.33711112
      932.86332402
      -20993.64946475
      521.32388659
      -302.09539561
      -27025.94562458
      2075.39031213
      -780.13876755
      1052.69332257
      -698.16027545
      1280.85188870
      1975.49141540
      1921.40102109
      2193.30728820
      1174.40196895
      545.57377710
      349.33063549
      -244.80965914
      362.15610879
      191.27520058
      -646.52772340
      -268.10235506
      -626.15373826
      -2878.16486314
      10542.66982727
      4047.79131163
      2346.73596052
      281.58614417
      7661.37395887
      3322.29906556
      -767.38038384
      5480.12861865
      887.08570366
      9654.80665082
      10716.52677703
      14262.03696259
      -4632.08586535
      -91.99371078
      2163.49242747
      3659.33668831
      3388.55288737
      4927.80822088
      43.62913896
      3613.93955625
      -1445.97546725
      1107.93234727
      6680.83111038
      3064.54403451
      3436.00901184
      -998.22670882
      1367.15688680
      -1346.47478120
      -964.95647500
      210.39038517
      4605.36419254
      5389.50317142
      2235.61761259
      6066.69883192
      2379.35228728
      1692.99613229
      5177.78396040
      1348.80473918
      58.34353074
      3788.97483853
      796.74052619
      2635.24701912
      -367.14022957
      -937.73425933
      -159.66894035
      231.95290125
      -13.60668482
      72.09866512
      644.22224635
      1232.35464848
      639.13872186
      604.46181790
      361.35036898
      360.46229569
      692.65318829
      2484.84675478
      -776.70112227
      2793.49075813
      2813.27260984
      -2107.45349962
      -4900.56275715
      -2027.18127781
      3667.63208097
      5428.26919289
      -10984.14698036
      9871.32357870
      4029.15308882
      542.34636263
      -1505.61069072
      1275.41759221
      3504.75777936
      -548.14090466
      -1791.90941660
      4718.65476887
      2264.34743696
      11505.16822195
      4612.47155712
      9207.95893195
      1777.32455502
      -8864.10718593
      -9823.07226406
      2676.09942247
      32.68653059
      2965.38323216
      -3806.38671361
      290.56865168
      5143.49043142
      453.50454617
      -909.92071984
      1095.44143101
      -1629.73534084
      -812.20928649
      -1214.82980174
      2460.02145254
      -497.36471377
      1242.78522755
      -24148.52814249
      -597.83958598
      729.24013909
      -1466.64370523
      4149.81685830
      6876.16638997
      5131.99578729
      140.88144301
      -1544.82286075
      737.40453035
      3168.60135309
      799.51721710
      1680.55201218
      -897.58074570
      -1832.56269166
      85.98514467
      -3077.80669367
      993.55750522
      2373.84865112
      -324.77712907
      958.67314442
      -38.64555936
      434.14152313
      3525.56282977
      4206.73291576
      -814.29138030
      -1223.13898201
      -189.51676585
      1041.97515118
      179.15038496
      4639.02956923
      -144.74874836
      2481.77533711
      1942.17721206
      1705.18342319
      7795.82932179
      1341.29162028
      1996.97204046
      4894.38415157
      706.76624834
      3187.44249208
      2220.96051737
      7603.92282945
      814.23134251
      2645.76118535
      4523.32993546
      1904.84401274
      2658.54414947
      5184.79349903
      -3255.94612921
      -779.79484683
      8552.27010581
      -6226.64164046
      -9211.42901180
      3513.55639889
      6151.42958142
      900.56781821
      2326.74368204
      -4803.41877040
      1627.13591089
      3011.35954753
      2271.32534739
      -1585.14541740
      840.75280514
      -404.49911398
      6737.35471989
      -18716.99888393
      -976.18978082
      282.57917032
      1610.53549792
      2618.93982189
      3332.89640584
      7898.99264964
      2965.79847610
      2963.92922484
      4921.20292096
      367.34400329
      -631.15206461
      5489.38881784
      3297.49215583
      2531.98978059
      2178.40000478
      -821.93051561
      4388.25054735
      -2945.44853015
      1691.08273115
      1183.01226149
      2019.88686820
      481.61551961
      519.67872093
      2275.54825949
      6528.03117709
      1289.02382773
      -196.74398717
      1943.06017844
      4529.39982237
      7463.45006520
      4259.58315649
      -1510.37469845
      1617.32680415
      7781.32905565
      8417.25086194
      1867.19918269
      1092.19657252
      1184.61741544
      3720.45471962
      -40.96250255
      7627.93250011
      1535.16257705
      -468.19136441
      1141.35269038
      8087.41292869
      -1177.70802747
      194.82140651
      3400.13620433
      1881.28584817
      3618.75697165
      418.88271479
      1633.77457815
      -2374.27761155
      -793.11782233
      4432.94603574
      225.19268361
      -1266.85133223
      5880.49235909
      312.70568545
      1341.10604550
      523.14562942
      1781.22739783
      1927.98617901
      536.68237211
      629.36896841
      -27399.67254656
      705.33265323
      4482.51913461
      2117.43789443
      4400.54582304
      6627.16283899
      2602.87032878
      -2827.75025943
      3680.22149715
      1165.82299927
      2441.37905523
      2887.78276446
      1734.71036663
      8904.46671168
      -933.69794777
      4335.18200098
      -2507.08647931
      5274.36629416
      3010.03283711
      1371.94521950
      2193.92794600
      3699.33222294
      9680.65595616
      5630.14917611
      563.07153853
      1991.40993267
      819.54672727
      390.69247484
      2125.20316763
      2575.29413499
      1660.86538266
      697.91068402
      2074.59755508
      668.29283985
      87.10298497
      726.47840622
      682.97583049
      2322.73906994
      435.62705950
      -291.61546031
      2737.65087062
      -4757.68078942
      3009.22489992
      -2559.95934423
      753.78239711
      -2553.05335692
      1194.69986136
      -3835.11232581
      952.97649051
      2256.77098591
      6463.65205986
      -2975.79938645
      1405.04596125
      82.79870490
      719.58463175
      -1423.48679249
      4256.26668095
      3820.00339754
      1100.01252376
      -173.74281474
      3245.32079545
      3932.30187141
      -360.20990854
      1896.26826881
      -2255.82886014
      4507.90885655
      -20980.90566408
      6751.54278234
      5475.24376592
      2349.37717432
      2771.73440751
      2720.60641374
      4493.93949510
      6243.95569682
      4969.90517055
      7482.00869081
      8127.06942603
      6017.51504735
      7891.93257147
      8877.10240531
      4169.04553086
      -1320.04730658
      7493.98935687
      2857.76275694
      3967.25451246
      4492.79792850
      6106.52292832
      1283.78595900
      940.85644385
      954.23542625
      11435.24040286
      6101.77298052
      1074.40240197
      1847.71128351
      599.27314667
      1394.82660499
      1401.42231980
      549.82179439
      233.66631630
      -983.47179727
      1780.80408704
      657.96910576
      1967.45472071
      1222.93214628
      1817.97694083
      228.70032155
      2829.37524105
      6993.54591114
      8305.63142270
      7769.36790375
      1076.43656035
      5368.48092479
      1294.24199835
      3282.40321085
      4193.55543437
      921.18113340
      470.10797970
      135.77125855
      5760.14863477
      4566.16078883
      596.28077686
      5645.27977951
      646.84970251
      5155.49140718
      -1449.89896996
      3266.20721705
      1693.55140082
      2063.66518090
      2648.51373749
      -251.70543010
      2927.25394217
      6027.91037167
      3238.23312798
      12273.96806176
      2135.54416502
      8485.24805897
      7087.78803894
      11095.24880660
      4634.01023510
      2497.68626860
      -33.52389062
      10178.50297467
      2880.73103519
      5812.71749981
      1794.32544107
      749.94911489
      3394.29624608
      9864.13335375
      3494.89990587
      5316.08595650
      4872.71829581
      6053.96242186
      -2175.65018499
      3221.17044847
      6378.90853778
      14415.41553482
      7861.97927733
      5761.90104805
      3542.93074954
      2683.04338257
      4147.62621111
      300.60714076
      4536.09745649
      790.46115967
      5564.43328888
      1764.15959917
      2675.54499859
      -204.70122002
      3426.65081510
      768.82362482
      10341.39136941
      892.00439032
      5858.69261211
      1095.65301274
      1596.66771847
      1898.67914477
      1244.94274866
      -26.89209699
      -11.03658303
      3759.04110357
      2791.67201883
      2037.60716991
      1521.08104224
      9181.53353668
      1201.18967882
      3854.42145459
      4169.45063622
      1066.01343232
      1904.59781338
      7961.90999714
      4765.38582900
      4004.49858593
      511.85767693
      2143.71327139
      455.48857990
      854.54593176
      2175.22486420
      5221.05155293
      6124.90277870
      3053.17206083
      11255.87940200
      12870.51664790
      12979.39509230
      1827.53037905
      1915.90226429
      4877.12536064
      -3286.92920205
      4251.97282183
      6254.75145253
      10547.35224638
      1794.81276410
      4262.05929200
      8696.74318683
      16693.19304775
      6535.05250287
      14053.09254621
      11063.44672939
      4642.07594792
      10223.38780547
      3270.34422426
      2349.98502824
      7120.69305209
      6512.00018760
      5877.12181224
      5962.38654327
      7214.59037602
      4583.02071175
      8759.21977021
      4454.46467899
      4527.00796508
      -2291.24559303
      5543.28369118
      5608.27461852
      2171.59707299
      1846.13479861
      3248.86793461
      6220.11503246
      2437.05332360
      3425.24075158
      1750.77231682
      8430.74414510
      1772.15770841
      2818.35108227
      1329.46105736
      -653.75068315
      4056.86624516
      -2330.22137459
      3995.59556066
      306.72884796
      4532.03563347
      1824.06286146
      6809.04199762
      4372.87224348
      1959.35813457
      815.00152530
      4849.75912221
      6715.44949760
      2458.79331025
      769.49533404
      692.56242781
      1761.43565532
      364.99942566
      1853.93681161
      3709.15216011
      -21336.21804100
      3687.08690278
      6136.67836003
      -8051.55061693
      -2120.06473398
      -1037.51230925
      33455.95166200
      10820.51144257
      7904.30812927
      932.61438082
      10550.40508621
      2792.60698571
      17043.84633149
      1405.54126959
      26138.05671845
      3303.18737512
      4967.04699637
      4619.56960644
      4974.24544896
      11207.31239760
      5595.04508133
      1802.69041517
      5458.66158088
      3122.17659534
      9880.11645804
      8688.11579202
      5008.05693455
      3639.60787196
      1735.38076604
      4876.22134370
      4517.88002786
      1786.98348814
      2419.42780473
      6575.62211462
      12260.68200646
      2059.81395077
      4465.97942312
      1176.30357554
      2546.19578393
      6092.66612366
      2039.84605942
      3646.66937644
      726.59718806
      805.46486398
      4425.90094975
      1779.36501478
      -616.34210008
      1373.72764141
      2758.20430855
      2355.13925363
      3534.47391681
      453.80270533
      1906.87859868
      10267.24207667
      2636.59086130
      4397.65060313
      2846.64254526
      2986.43141247
      1659.28952846
      3948.06684398
      -1081.48212090
      580.77966150
      -94.41223616
      2013.30193643
      1497.59540569
      1185.40799225
      8012.80671869
      -16161.55176151
      4285.60503573
      10973.35739495
      4385.84607090
      9023.38411590
      7039.54116818
      -674.65633600
      13646.01884148
      3826.73262770
      5375.02046990
      11907.56282567
      3371.33720353
      5384.44617921
      6149.96625035
      7905.97194385
      1860.54631278
      1142.74455628
      1671.86521597
      5592.19681407
      4185.24137130
      8245.37920122
      1626.90064303
      5458.74388538
      524.79959265
      3006.07907445
      1517.92870708
      2452.47905937
      2149.19217332
      1007.31292258
      1809.31813643
      2922.98507317
      4877.51688460
      2747.34495594
      6224.12372105
      4391.32434626
      870.62869697
      3228.11519507
      4438.63387055
      1689.37752302
      -161.43856472
      2816.30758717
      3690.99533669
      2474.11885825
      3874.50938893
      3069.23986252
      -765.08177900
      -1810.76892751
      1250.02988438
      1110.74797786
      1909.86619195
      2777.84425857
      11656.74908343
      4473.77999596
      725.16090096
      5687.29331954
      1377.20602661
      1990.24854643
      1030.41708313
      -1210.03176512
      126.88497735
      -3948.45128066
      -1316.68124808
      -2842.81669245
      3576.32181681
      1060.66520810
      -18378.22992136
      -5122.03323266
      5819.44460696
      8016.32375350
      8433.65920293
      6487.55704194
      4855.25235803
      8431.32829736
      15778.56876810
      2685.07352640
      5991.89077320
      7648.11285978
      4656.55069240
      14023.94979704
      9919.45971264
      6147.64723946
      836.83940951
      1633.84821571
      1350.54480930
      -605.54405317
      2534.02565047
      -1003.67039759
      2925.50485611
      2636.17451947
      928.96051103
      1445.76810076
      1809.43157135
      1276.37764412
      4125.96853940
      359.79338020
      2204.60534283
      4680.71556211
      6898.84607715
      2135.21361119
      708.37329718
      3274.41189460
      4402.70217230
      2126.79321346
      -673.62086018
      1678.36098404
      4906.36585290
      1206.73269958
      1488.00430237
      2820.70634124
      1446.92189836
      1583.47411651
      6410.10662339
      5590.94487246
      389.35489785
      737.89969483
      1214.12903680
      1549.84431018
      209.06552220
      3320.86556679
      2787.28299722
      3478.15196214
      1667.94180607
      -1405.63943010
      -213.97771302
      -487.71117919
      478.80779173
      2495.66099875
      -1286.21649023
      2151.66381490
      1375.36089305
      -3142.31657463
      -15857.23209146
      4436.29120848
      6796.63951919
      6368.90118637
      5464.79173230
      7484.69113113
      8551.23303950
      7610.08964782
      8520.38892465
      15771.12027342
      21637.28495066
      10238.05752296
      8116.14839470
      13171.36105716
      3327.15719807
      7707.17795416
      4153.61238288
      3022.82716059
      1832.16605999
      1542.59685254
      2467.34711234
      2981.96580364
      3435.91229669
      1463.59415158
      1404.77942325
      35.17002285
      -12.20147587
      987.41492782
      785.54404849
      353.51492437
      587.34610478
      369.90598374
      3590.07998608
      4404.29972546
      7897.30785125
      2812.82904712
      3172.96219936
      4000.61069257
      1891.02721146
      2015.34628931
      1858.52339341
      2910.45692295
      4336.94861371
      1994.82276280
      4780.87209568
      6653.71333588
      849.25491436
      1375.96767001
      5670.32439217
      5186.01326935
      753.39620835
      1960.53048733
      -2071.44452655
      1491.75895777
      -640.06452666
      681.45872796
      2152.64728957
      4270.13517277
      260.99585103
      5780.39184445
      5286.09046551
      5063.99450912
      -2589.63153435
      1828.55840111
      1553.46566573
      1704.89113093
      -9707.61887562
      7228.88783134
      14379.28119874
      12320.93889625
      1919.66003239
      1772.46523941
      2896.94814151
      9731.40951609
      7898.51042541
      6371.75339060
      2042.27204380
      4615.39755580
      2145.56930181
      5457.07158977
      3621.84970400
      1369.16537876
      3924.42739605
      828.18129773
      1725.44475800
      2971.64260503
      2486.80172530
      2328.95369444
      581.25972397
      2413.88383744
      1849.46397371
      3685.69766430
      -299.39108133
      1293.06243814
      2639.24125786
      2174.53481777
      3215.87281819
      2075.71506150
      3499.77042670
      3786.49094752
      3538.40117278
      -460.27439681
      1966.11776495
      614.73345186
      2610.23646603
      1824.88014940
      -1706.65053397
      -1773.09812173
      2375.17390654
      -1391.02224471
      -2.26811597
      3321.41656031
      -296.84658582
      2275.37722858
      4950.05659797
      602.95545040
      1573.34680225
      2827.94970861
      2946.24172239
      1941.20000155
      3460.23936716
      1089.67713687
      -259.14796041
      -420.04641468
      2365.19697913
      2568.09293855
      5447.47151417
      -1504.90735998
      363.18982574
      4042.86753722
      3363.75289637
      85.85796559
      -7886.36499036
      1818.00031250
      1628.83522993
      19306.46854305
      12008.94886174
      4968.80548651
      3836.16627437
      17987.62304610
      3087.11659768
      4126.25445737
      3399.50345924
      3780.11892499
      1475.90302363
      7090.86265583
      1859.50355576
      1166.25375573
      1693.55045280
      392.65057890
      -942.30092802
      2981.26393812
      1636.66304428
      3262.62369833
      2172.43623273
      1986.18964643
      -1932.28598041
      -39.68701288
      3970.72287754
      2499.55716898
      2036.60571921
      6306.56385255
      205.89900775
      1464.25997613
      3452.43455718
      2152.45710874
      1150.61086583
      1952.50036420
      4698.28343088
      461.70846306
      1488.70799648
      1017.57402382
      3234.94066640
      3311.18838618
      3414.33348626
      5122.76471217
      -230.21497087
      2474.54361219
      1776.24616904
      -594.52900803
      -5976.65650179
      -1692.29816305
      723.48048265
      -290.05256933
      3561.39269735
      625.46029524
      295.99670627
      -1096.65575469
      -468.70837342
      3561.16816986
      -1844.32945409
      3038.80281301
      135.91542859
      219.78143359
      4788.97416495
      3557.09320307
      4568.25406805
      316.75340770
      4473.84154402
      22543.88447291
      13885.97409153
      4679.80611653
      13055.69520300
      2119.18073750
      4296.26758234
      4738.54917950
      3876.71065944
      5345.31616180
      3359.53101795
      4822.38372576
      5239.77586542
      371.52271619
      -2081.70620839
      939.87176167
      2951.25672608
      2989.69923379
      2179.21658322
      1334.16738855
      2109.25437536
      1500.55148090
      2901.30218152
      6281.55953899
      2245.27802044
      4276.94075362
      -813.04814030
      1954.89278968
      3495.45835929
      -423.40079454
      358.51528679
      3196.60493898
      2430.77219469
      4092.98463454
      1077.29789580
      1057.23321556
      1591.20105713
      2100.36015351
      1327.57664274
      1699.69362031
      113.82407952
      -1498.83069129
      2403.41543800
      1574.57302486
      -2112.54062414
      -1325.97627771
      356.02430394
      2761.40632889
      3894.97005646
      -2610.10305471
      -2169.16287132
      -668.21945335
      4235.09142774
      890.71192170
      966.38143520
      15.08426452
      2040.82254120
      4459.13666078
      840.82102567
      432.76799581
      946.03617299
      2146.39507722
      -404.09049998
      2828.01735445
      550.35599735
      -2337.06111257
      -28338.34729544
      5376.90626385
      7511.62711294
      5076.81754368
      5390.94746627
      3967.68077783
      7113.61715393
      4812.19826092
      6544.39798965
      632.53513491
      5995.88366472
      5579.75293234
      2753.51045875
      2065.72075856
      4316.31401275
      2103.30794458
      -100.28172785
      3798.37829170
      527.53605959
      2858.57500756
      1425.02604648
      3319.65021223
      1889.67018371
      505.24900949
      905.18729227
      8797.36434839
      5016.11619711
      2762.67354979
      340.54352521
      3339.70379318
      -1245.29102396
      2974.91502688
      3428.95520422
      93.45208511
      992.40739951
      164.80910892
      1871.17986446
      1074.03244353
      107.07794199
      1436.30860225
      356.71197851
      -764.52241817
      1972.24714284
      -51.85076131
      547.45000183
      2244.47012460
      2513.47838232
      90.67854178
      1290.14609714
      807.48882364
      -245.59833532
      -348.33436054
      -112.52263120
      2156.07570938
      -458.99539425
      2555.13411281
      661.41909140
      1239.10394629
      -85.76077598
      989.77790663
      -1319.27179219
      483.46158261
      -2165.51260754
      8116.23271457
      6589.96169953
      -6459.84256947
      10940.21684210
      6719.30384145
      4756.73478114
      7021.70155842
      4069.60528470
      2540.54896794
      4841.26123082
      5964.29086676
      2574.96675178
      -1285.83460800
      1297.18326876
      2019.00271005
      794.31790758
      2562.41010694
      2526.55608223
      -402.27839132
      1299.62234524
      3674.36365053
      2719.75598277
      2474.89284310
      3253.27848969
      1775.36047793
      2989.70790091
      910.04605788
      3098.20623667
      2748.57535353
      6223.86519597
      1026.05296314
      998.13923307
      1661.54031720
      1196.39238742
      156.32229055
      1588.95342682
      473.31060503
      3490.23480968
      -503.84530710
      3996.20428214
      2019.80843716
      -1242.73869018
      454.93669884
      690.18091298
      -290.14135709
      1052.94846165
      -41.07629789
      870.95090531
      2630.41621598
      908.48853016
      2744.54265649
      139.56879058
      4611.53502685
      268.90206140
      4907.12170534
      2453.43762365
      -250.18367998
      -470.42340759
      -283.60884433
      -2746.85518636
      2871.25643381
      899.19837300
      615.05269107
      -3701.28982306
      4457.06096078
      1982.94479587
      5009.45885221
      6673.18303951
      4061.91382967
      3647.29942929
      7459.98461309
      5809.05168686
      9549.90190894
      6035.65689180
      4907.79321776
      2791.51968111
      146.97649537
      2567.05390407
      2359.64954041
      2016.38950746
      -913.52963709
      2440.28490250
      2487.30959366
      1135.52811679
      -38.81552802
      1163.16500938
      321.57991828
      -1456.37859181
      1083.56590193
      2061.53867487
      1860.14805764
      1774.80745653
      1003.25692808
      5773.72212455
      4398.67581632
      1848.77528916
      3561.37455122
      2822.40439313
      971.29953008
      4071.53796225
      1276.66212557
      714.76919822
      -1487.69148381
      2259.69306763
      1791.45769794
      -538.67143246
      -1017.12395552
      446.41105874
      -106.31421077
      1037.80579387
      3279.52097847
      1158.33521536
      1041.71778961
      1284.07539850
      -30.00633885
      3832.27171211
      -4775.66216979
      995.95399517
      5282.72935629
      3898.67663477
      2700.02061067
      547.92157253
      -437.16645582
      -1360.29937405
      2400.15849855
      -1326.20934883
      -549.89833277
      4414.31025451
      1686.99685848
      9392.57247969
      2602.84687907
      3563.97716219
      -433.13560738
      2549.08668588
      -3576.91077416
      -30962.88851667
      -5678.75686574
      11674.64529242
      7885.86400924
      2022.21662683
      4699.35999575
      3242.19915596
      151.48476406
      2075.21523311
      9324.45114425
      2734.33006056
      4038.55366982
      3688.16533478
      2738.33408885
      1054.13987443
      3886.05782780
      538.02076406
      322.30303887
      2077.28986171
      3252.06661207
      849.90339177
      1347.06151397
      2657.52056515
      1368.23854149
      1669.50211040
      3531.97311083
      4205.54621141
      4878.00581978
      2823.99582818
      1186.67970224
      -676.82827607
      -4792.86187336
      -140.53326092
      -2877.31608912
      4894.57953081
      722.53037839
      193.67005493
      -1411.58979029
      -392.80769284
      1780.14516081
      1602.27923373
      904.40522369
      147.33967003
      3649.00297158
      1549.45531993
      511.43575883
      574.81199979
      497.61376192
      -1813.15626857
      6087.40038978
      4012.90957637
      520.82437878
      790.33278030
      276.73205512
      -220.30199563
      -995.96603709
      4127.71786379
      2627.29692804
      774.69891811
      -1789.48208965
      4092.57585185
      4607.26719847
      3731.44630219
      4217.83556611
      4192.67853882
      -1729.15281048
      -19317.15986296
      3439.32525334
      5272.61544128
      3720.73695796
      3890.74414917
      3270.81911353
      -722.42595603
      2464.73213668
      2414.56091828
      3533.99925052
      7454.48555585
      2939.94882036
      3115.22719570
      418.84561386
      2071.37683783
      3471.88500784
      3374.55711351
      2258.80431013
      552.68128154
      290.60382767
      2335.95621070
      2026.15307050
      637.04359911
      -766.63706524
      1714.32468369
      1627.43438896
      -1232.85311326
      1874.51881864
      1714.82454816
      2955.96968884
      2210.95877461
      956.63937477
      303.77529531
      2562.86457085
      2077.25167611
      3216.83106585
      -390.15255033
      620.85341483
      2219.73471416
      1154.68405335
      1532.92208928
      2314.13252532
      820.89793589
      1807.75350930
      2066.18075724
      1591.19236320
      -939.00223465
      -1327.83132354
      1934.38312835
      -334.94017434
      1194.89654892
      133.23720754
      -232.70359413
      -1376.46946516
      1216.62161188
      -753.02820261
      1213.00794467
      -1049.69627308
      3534.30636369
      3089.16263881
      1113.16137317
      8281.12090607
      2189.23741872
      680.09395266
      2326.86778982
      57.88787119
      3211.75720808
      1009.27610082
      9913.51574108
      5713.90985875
      3060.48547142
      1172.76472854
      3214.86682650
      2487.64881862
      1298.85240025
      571.25015626
      2001.44299425
      2003.52695867
      457.45928699
      8152.10705337
      4538.84085305
      1198.95764778
      803.95691749
      545.34929168
      1524.00332252
      865.11102128
      913.19418967
      2086.95626789
      1443.57704800
      1227.74689190
      623.36450207
      727.27787344
      5057.82521237
      1450.41206389
      2241.61403121
      657.85531661
      3814.88795905
      -545.03433992
      -2146.21312235
      2560.40226742
      -465.49039247
      2322.27121995
      4094.70376197
      -1598.12235062
      4426.36097807
      -599.75904553
      2368.63402519
      781.94655202
      383.85167330
      371.62049234
      -679.05364217
      832.59790992
      378.89859276
      1635.90380919
      817.65727548
      1230.40040305
      1876.93461276
      -1610.39000124
      808.81530457
      -211.65532218
      117.73277790
      -1965.87625836
      -110.56772394
      2025.08333097
      499.35443362
      4768.63134353
      2786.40955093
      1390.83097962
      4372.91037987
      11320.50049653
      4968.60626927
      -3780.30121494
      9922.77163446
      1351.07896724
      4618.09074702
      4600.26000819
      4321.34957567
      2927.93790649
      1897.69316760
      3630.61182602
      2851.68293285
      3407.12198830
      2547.28420183
      27.91507189
      1492.76502498
      3280.11612653
      194.65417206
      -2276.90480585
      2861.19203801
      -935.80588825
      56.29160532
      2502.07963970
      1856.37931017
      4362.61964041
      1701.15358286
      1741.98452179
      2887.56687884
      64.19395091
      1673.47651260
      4635.84813905
      946.11428326
      2537.34521280
      1206.47032776
      59.52798254
      916.36216383
      754.91797988
      1594.65526446
      -360.08912085
      2046.09938897
      -1164.73938883
      -1034.63275981
      70.00850416
      665.37868252
      2394.26187560
      -4358.71549363
      121.10966900
      -353.79032381
      1750.36464154
      648.15794039
      -2054.26112554
      -1076.47722119
      404.03958029
      956.79649318
      -1443.49593533
      268.47543082
      1254.91543442
      460.54208235
      1178.23479066
      1163.65992197
      2439.35443979
      1084.17876999
      -2679.05335554
      2571.60261770
      1391.55146754
      1502.99764813
      3295.13384818
      351.41382630
      -2612.39253651
      -40161.08078057
      6659.66400367
      7129.62128642
      5101.26533009
      1990.82142589
      2927.61522503
      1681.76132032
      3669.46469103
      3466.49838351
      1159.43426684
      2874.65159583
      1880.96745820
      3219.03299492
      5904.42596619
      3360.07469070
      2884.07697574
      2068.73272396
      1612.42155912
      665.24343260
      790.29933508
      1326.00143915
      1076.63991806
      951.28333307
      -695.13950840
      1732.56206968
      653.67897348
      4178.97218898
      2578.85409831
      1317.68209892
      -2528.41468608
      2098.08123252
      -2238.46800823
      -199.87629817
      3086.16649235
      950.80567781
      47.72148161
      434.02918278