<?xml version="1.0"?>
<VTKFile type= "UnstructuredGrid"  version= "0.1"  byte_order= "BigEndian">
<UnstructuredGrid>
<Piece NumberOfPoints="5123" NumberOfCells="5123">
<PointData Scalars="Pressure" Vectors="Velocity">
<DataArray type="Float32" Name="Pressures" format="ascii">
      205.22403106
      -18877.45928646
      -24954.81094138
      -25493.28008765
      -24261.99582305
      -28560.32273856
      -29272.80775739
      -642.68819865
      518.74116474
      -23569.16128140
      617.25669169
      -22140.43487678
      1202.84542144
      -481.46975887
      -20993.64946475
      897.47387130
      458.83324627
      -27025.94562458
      8231.18393909
      -7513.84938254
      -911.19640784
      -1035.85342580
      392.42383989
      -713.85343177
      2392.78414951
      220.34759021
      131.35291708
      94.14077100
      -2525.93153609
      109.62024524
      467.84823712
      -116.28832833
      715.66040903
      -638.99733132
      -502.17678249
      115.72894434
      -701.22555402
      1028.78084842
      -416.75741000
      1062.44416853
      2078.80063612
      39.24784712
      -22.63180425
      502.05114305
      559.52002838
      -3945.05982097
      -1698.86622009
      -330.17387660
      -162.20305498
      324.03311058
      -1167.67975148
      599.76960418
      -774.82851772
      913.53026713
      600.64827418
      524.71378541
      454.49432447
      479.64774710
      -476.46817017
      642.98189739
      1227.08795796
      1023.52754584
      122.56564322
      -705.83304524
      547.22266757
      1210.79906358
      3825.25505487
      5389.50317142
      34.60597682
      725.55315727
      163.60647603
      -744.53235860
      614.60271937
      697.63946543
      1055.22420489
      3003.29336567
      9.59052749
      311.10639433
      673.76573982
      1298.13564254
      -829.51040093
      -536.39878535
      1369.04140919
      -1192.63918298
      985.20519593
      -753.86201214
      3751.29708565
      -804.52881812
      -3807.93878408
      -3906.20915518
      2561.87921779
      1672.25726551
      -212.14867349
      -3639.24153836
      -2091.37782806
      498.45933432
      -203.86086959
      -32.80726023
      -601.74160478
      -412.81692771
      335.73326735
      -1202.03351931
      262.47395688
      -1660.49954829
      38.12304193
      -234.15821211
      313.75260413
      587.30353746
      396.85370067
      -48.29048964
      599.55162489
      151.81002375
      -41.66058356
      210.66523486
      633.42385988
      -533.10141317
      -303.99170299
      -30.59575749
      59.29886369
      376.85404965
      -2641.09541355
      -466.95600985
      608.96310126
      504.45100491
      373.27580677
      1976.59696623
      619.76410020
      714.81903098
      -1589.99388541
      2856.37354236
      487.29077742
      866.74600731
      -24148.52814249
      887.34863514
      -82.41666714
      1722.63321501
      4753.86426006
      4774.95108226
      5674.03002308
      853.45675303
      1022.76732297
      1983.00768037
      603.49038257
      254.52056766
      1257.32795516
      804.14787701
      2503.67713678
      2704.09603090
      1143.67162014
      720.38358397
      2136.32058979
      1118.41340973
      1385.41107411
      3025.07211962
      989.06578483
      2216.17162382
      2014.03604867
      -1989.58773208
      2882.35638530
      2590.70622229
      2151.90636117
      550.34953794
      1956.16423264
      766.30903605
      205.78865882
      -311.74216575
      -877.83915244
      -705.04843795
      819.70553455
      -305.19506109
      1253.77755407
      859.54312047
      -279.16924113
      -615.54434238
      36.85225113
      -590.55204266
      748.33803630
      -1419.82877945
      -938.33765092
      1024.73951732
      2460.30392090
      649.02158092
      -2546.43895473
      529.39932991
      191.68834164
      681.68512294
      3254.61077927
      1348.28437334
      366.68803585
      1482.38643444
      -148.16567821
      320.14306310
      1400.94780640
      450.15281058
      -110.21417056
      465.31614476
      -25.50608961
      631.76088727
      -18716.99888393
      1617.59617917
      600.52282241
      1384.25567457
      7415.99189712
      3176.74021902
      7870.78763388
      5908.83665629
      -746.42484707
      -912.07974182
      824.12159327
      4373.64778876
      6337.82872577
      4513.09556540
      691.87747506
      839.24377412
      1167.75341422
      -2559.04692726
      3006.74458546
      1050.99392105
      1197.80626338
      487.92805050
      1623.92069889
      376.32457405
      2621.86192455
      3120.30195686
      1820.64240678
      3576.20481068
      1575.92581055
      2749.61961620
      647.00588425
      2006.86327349
      1128.86441480
      -322.29932582
      5210.67198900
      754.49473760
      192.76764791
      2473.74963597
      2628.28447373
      898.36479499
      1828.41553055
      -2862.50205686
      -4300.01244999
      -418.12678618
      -159.89622372
      929.36181520
      -1228.09843974
      -3330.24843443
      -5899.38245686
      469.52730635
      77.52832202
      225.65817348
      -104.43882624
      890.24561851
      -624.44098254
      633.33015925
      -1332.67750818
      1614.31127236
      -958.97587543
      744.49711210
      -1091.04361539
      -705.44863283
      -207.24564492
      246.94867364
      744.24432230
      -395.23439431
      -27399.67254656
      -389.32459139
      2257.20434628
      5726.98994788
      1301.47682797
      2581.39978069
      1745.78897115
      2773.82388421
      -1007.68095742
      606.69644149
      1058.12167756
      1684.38223852
      784.30653896
      1444.68386552
      19.57929336
      -3237.09892455
      519.25848377
      2004.96878448
      -946.04746896
      130.36665762
      954.03800529
      1083.07599817
      57.86307157
      585.95145346
      1298.37591101
      2327.77937206
      265.01933642
      -200.86536901
      1256.57247947
      -663.05666168
      -219.96766005
      3056.54359314
      1229.63961897
      1192.27709290
      2969.50248851
      2025.05709590
      1190.38831963
      496.63165014
      -2676.33398419
      1705.63365528
      672.69211710
      872.46799826
      -216.55091011
      2521.13500439
      -2084.14872226
      555.15108055
      2014.37416141
      840.62190003
      -75.19978533
      888.19727863
      -132.27217387
      886.11723085
      72.19889755
      604.80312489
      932.75301957
      1016.85657088
      705.89216842
      -454.83571829
      -481.18602437
      165.17058859
      -4633.44256975
      948.03669639
      -1045.02071064
      833.85673317
      110.74199089
      304.90063598
      -20980.90566408
      10807.04584678
      6275.41538545
      4880.04806858
      565.63069460
      595.69080736
      1264.62506815
      2672.24167692
      1489.51271925
      1703.82674610
      2687.06984125
      2520.04134906
      2678.62085776
      982.29723568
      585.54008444
      2116.99744401
      921.25411993
      559.27104606
      315.21712075
      881.09381262
      1887.34683815
      1642.99088596
      623.14894585
      -618.51035852
      7638.13368743
      2866.73147453
      -2512.79231357
      946.83751229
      -110.44926395
      4721.32122502
      -670.63499181
      -1531.17051489
      -897.28438888
      -1442.55461888
      -19.19060813
      3627.35864158
      4181.90758897
      1446.64349302
      2462.06221602
      599.25454427
      -212.11664879
      1727.95921935
      -1847.20003649
      520.12810426
      -984.44989222
      1339.95279667
      710.21522276
      2202.80639574
      3225.79346777
      944.63875928
      -165.67823867
      -303.95676823
      1917.48207236
      913.87566074
      -1836.01950389
      782.11702012
      2165.62836330
      -1471.81172080
      747.16734310
      662.18031345
      208.82858363
      -235.68292977
      946.06164371
      129.02352363
      -165.30623651
      15.34236380
      5326.01347783
      25433.76682877
      1777.86851690
      871.01128768
      2746.50174070
      8331.74324837
      1900.90191273
      3661.30588484
      2662.06275272
      3267.01690331
      1337.04754378
      573.37574403
      1897.02270291
      2500.83944614
      -819.85941735
      -3231.99521264
      3030.51326876
      -2258.86635924
      979.63234488
      -1142.18224809
      1363.09667121
      767.99978014
      1175.52621145
      5764.85711607
      4426.87907117
      3524.23709779
      1747.07788210
      7972.03415890
      1906.85764579
      1598.14246432
      4724.16452142
      3925.26721738
      4031.89078430
      -23.14441714
      -65.28824385
      -2521.55008550
      1912.62590506
      310.44438873
      3429.29915703
      1294.97177438
      555.18091686
      244.22882906
      2658.72247515
      3010.77474017
      1514.93117578
      -1155.98719417
      284.96149186
      -911.02228345
      4077.81704879
      -2821.30678626
      7.73061421
      3137.43847166
      3247.84644589
      1934.81790762
      -703.39042465
      3175.91511116
      -426.11309325
      -2504.28902021
      827.16995033
      799.57893029
      -136.14993525
      481.66061923
      -174.22381436
      91.03312632
      176.37259158
      -191.44965585
      4454.04815959
      1748.52168786
      3222.10486420
      1577.44983617
      8931.46676825
      2704.28628743
      6665.51017212
      1126.66371094
      -567.91989550
      1768.62096450
      3157.53143547
      4880.06138133
      463.80098552
      1526.55674084
      -1870.20366379
      740.25195201
      4689.54554467
      3788.44541475
      1360.00571740
      9544.30207322
      2699.21563017
      14872.25067567
      -6535.21411252
      636.37927266
      2832.29599101
      2003.66532639
      -666.03821523
      2749.99385785
      1169.21260462
      -4042.94368406
      3172.77186608
      1874.06877737
      4959.76027844
      -1612.83138040
      4149.25783246
      1375.24584339
      1618.09963166
      7984.52826896
      2033.17271407
      2679.41525325
      3538.57180129
      1183.09920667
      -2041.81900744
      -928.72921309
      6752.62162109
      570.91826900
      -1401.17551343
      -387.28306378
      1434.34714374
      442.89832017
      241.57137780
      1837.02347451
      1241.15411796
      6245.98920846
      168.67294039
      -146.98366428
      258.07725646
      -1.66929167
      2312.79185711
      59.49683660
      -262.72560597
      602.81554336
      846.27388346
      -549.54875564
      -634.96749497
      787.79681020
      -21336.21804100
      10937.32092803
      9401.00603051
      10913.63932653
      9057.78290509
      7060.66914427
      -987.72642858
      -2848.46277907
      1232.66890930
      2250.68727742
      330.65910075
      2984.47049903
      1965.15166150
      2324.57699409
      2465.68860179
      2349.42775564
      2674.18081694
      -530.47850387
      1293.40693468
      -4944.61433910
      824.65601686
      3468.32192813
      7737.98142334
      -330.93041060
      1493.68851599
      4135.90150090
      -892.94302538
      6238.11610260
      1427.09442185
      464.18171901
      1845.27676656
      -466.14841720
      1986.94967159
      410.68817432
      947.92063490
      499.37176317
      1133.62574689
      -399.13532625
      -1117.31491217
      8910.17814443
      2645.78704606
      676.12248977
      -1087.22920293
      -1428.79493172
      2981.66934439
      668.50246813
      275.80064557
      -1483.50478344
      2764.33049770
      1795.61359029
      1663.18656153
      -264.13373097
      3149.57511272
      1969.20544974
      3406.68416108
      962.09803135
      848.47827134
      617.83998710
      -1072.88034204
      939.17912660
      43.15367368
      -618.95014648
      -378.36475821
      -1128.19704242
      1369.44960984
      553.92469328
      8419.50192661
      12730.65578534
      -343.46814922
      -3859.23850093
      4371.51178471
      2420.54177179
      1259.89924003
      3084.59396638
      2023.20928674
      1183.60934632
      2222.03180705
      688.56785417
      5018.94955591
      2483.92672614
      2196.38771963
      1282.57513107
      3105.61565600
      3002.27174050
      640.48943553
      416.18667035
      3686.53395073
      3439.69195197
      3823.57042169
      3015.92505176
      4521.16971015
      1243.24700192
      767.19162984
      103.37383878
      1268.80310118
      699.67036461
      884.73717192
      1337.38404457
      52.92046998
      1152.26821048
      1337.70076490
      -1942.78244943
      2098.19391743
      346.59562179
      2221.85204765
      124.68809042
      1317.98810344
      -464.65034358
      1793.02447237
      475.53600852
      2251.46446522
      -883.15989335
      861.84395291
      1594.11596236
      1228.76739255
      890.07835244
      2500.37537739
      -594.50538134
      2735.27599595
      -17.61618696
      -566.00998830
      340.58919514
      -768.56730031
      1059.20653844
      95.41862598
      -39.78872115
      1145.79034162
      169.28031089
      -620.07700709
      -172.25057988
      -344.59919076
      -299.62143505
      -18378.22992136
      -5456.36935502
      3847.12626343
      -2174.86698229
      -2081.10898173
      828.47305025
      3624.46702036
      3095.03171352
      3089.27680530
      1921.11523391
      3576.73194535
      2187.80016914
      3949.68910290
      8083.41744162
      2852.86491066
      1514.40616521
      1966.53049372
      2313.40220581
      971.15280482
      465.24520035
      2265.06545559
      862.93616462
      -2150.82070111
      1034.03824633
      3293.24524070
      1652.09692542
      0.41929529
      3372.09928368
      1129.50182232
      1599.44640618
      13.47100718
      2633.65096279
      -255.26811557
      -629.41516091
      1370.12362084
      487.60862495
      3231.55539054
      186.79140793
      2665.18890949
      4951.42550132
      1539.92616491
      1862.14886799
      1469.67585526
      3917.44441674
      -1966.20455856
      3425.18867948
      -274.56487554
      -1299.26190686
      -920.62670373
      2969.99142230
      2474.39963863
      2713.88447653
      -2105.90193886
      946.01337437
      2207.86273747
      -1248.83701385
      2348.65252043
      206.87715168
      1224.92161085
      1473.57725518
      1458.90684949
      -2418.64904583
      -202.89254246
      722.04120005
      789.00253154
      333.11225950
      -11563.29241976
      528.96189820
      5248.51050830
      1907.82454154
      3958.25608733
      1202.93015497
      4199.56135630
      8214.06382932
      4513.52189495
      3484.96204385
      1939.29162813
      2578.55754985
      534.77585263
      1665.90054205
      2343.27390304
      703.35647867
      4451.92291891
      2872.20310746
      -4200.90978598
      -3252.33460723
      11994.68229020
      1769.48844121
      2902.63393096
      1311.43192654
      2458.61550387
      -361.67544352
      7051.79277225
      1837.61473135
      7773.05289595
      -3075.40453197
      4639.54917055
      -3391.02230987
      6702.06164626
      10879.99991026
      -5340.21605092
      -343.97355877
      5474.97058342
      7509.19394897
      4773.76537275
      -930.47498660
      1783.98960195
      3151.89180222
      2208.41319496
      2579.84420398
      -1035.06452026
      1272.08836395
      3546.23145342
      2102.36804994
      -274.73913113
      -546.07036468
      756.42360660
      1090.14608673
      1137.85001431
      1627.95261727
      311.91940975
      558.87992030
      2673.45045270
      626.20205805
      1281.08851150
      937.54759078
      99.10560374
      2329.36609038
      245.32016629
      -164.30765393
      -1376.78989688
      -1437.20119762
      -1760.36187937
      6996.26130682
      2550.93088011
      2945.33365842
      2637.58444676
      1327.33781421
      5092.84538158
      3136.12300325
      3435.79884349
      2807.19540147
      4164.92703091
      1469.77771353
      547.58039229
      7557.88661740
      1944.41058073
      950.46202164
      9078.69344960
      5951.80069755
      -17650.94787319
      4899.65825485
      7185.21701823
      366.40439995
      4612.95306102
      3571.30787492
      -1834.03125544
      3509.13164544
      15922.48091666
      4176.45208082
      3354.30783580
      14345.11500096
      6919.48352766
      2042.57605485
      6042.19271539
      2444.49693320
      -1441.83858216
      665.13013254
      -740.17573223
      -1318.08905548
      5412.75876793
      -805.89494035
      1463.59935578
      -5327.24239789
      -1637.51043974
      6452.39273106
      3703.06539055
      3842.42692176
      8537.57664791
      6540.86308505
      -11419.94593473
      7463.30170229
      -1188.01100923
      471.91786653
      2020.88690706
      3812.71122235
      -562.04660024
      1419.42750337
      1894.11066974
      1643.53075506
      -3010.68256056
      -178.78748606
      554.55237471
      -538.32349486
      1668.98114811
      1847.93460519
      527.31551789
      1802.68668623
      -7886.36499036
      724.74770687
      813.18135471
      4707.03151902
      4544.07134244
      2847.23820838
      2512.44354905
      7853.06611006
      3311.87418845
      -8237.03847115
      6219.06276343
      11443.87658653
      7144.80075020
      4126.74835715
      1717.09470716
      3398.20388361
      6150.82229440
      4483.46870670
      3547.93308908
      1052.92538221
      5641.93129503
      20639.89954487
      6352.08079220
      1554.58526709
      -2858.06749203
      2313.09117173
      4513.66270293
      7559.87613349
      2728.74301204
      7357.56381182
      1229.61876334
      4247.72237055
      12188.51184328
      7118.02557721
      504.45236846
      -9280.94873342
      10840.57627422
      5374.11797137
      7652.82967365
      4422.48192764
      2744.63757111
      528.25655723
      4422.84694460
      4628.37708490
      17215.29259509
      -3514.25768534
      -5031.25669056
      7638.24373098
      2435.16156713
      14539.26174434
      6207.99050075
      6046.48924939
      -2265.91865991
      4388.62963197
      2633.66652126
      5912.24720604
      5693.13759254
      -526.80099944
      353.33627569
      610.11740039
      840.70247794
      -42.47178982
      713.12033295
      3594.66116936
      -851.90427078
      1529.68487052
      5347.37708551
      2728.38402117
      5815.97506323
      3232.91592765
      23537.10689770
      4742.54677284
      1725.42222063
      -1354.45464222
      14191.53801358
      10099.13419129
      5463.29086611
      6890.49737094
      13699.30039240
      5215.38196240
      3212.62714457
      4296.08175501
      3334.92580311
      3547.74948666
      4152.49937131
      3993.64809554
      2776.00224649
      2072.80967729
      1593.21161413
      5535.92697202
      4181.40322802
      -1046.83604421
      7812.15833929
      5559.55647672
      11716.83896294
      5597.28481269
      8223.20540508
      6637.31771371
      3516.12604448
      7816.25638904
      2412.58826801
      13321.54442875
      4266.88476644
      3808.85294780
      2651.97725904
      3521.50537201
      -144.44445171
      4257.40462658
      -533.82575490
      11669.72436678
      3503.12595411
      5053.34291203
      2734.64035265
      5133.50189247
      4227.11971788
      6012.86447167
      8486.08012931
      -1813.12984555
      3458.48448591
      1028.10700069
      5878.76265296
      11570.16027981
      10676.25329932
      41.73149180
      -1947.14283657
      -6171.46277252
      6804.60122578
      2525.58927131
      5617.50359437
      -1010.59960792
      2950.35023442
      1059.71886626
      -28338.34729544
      2742.83546466
      16904.38411563
      92.68431613
      8386.64505906
      4081.33917141
      9595.91833651
      7307.48609102
      5362.28775789
      7491.67691919
      9786.97575169
      4661.54141739
      13776.57638977
      8260.94420241
      3724.45660589
      4592.09950049
      5313.75960394
      3910.39051561
      5011.21245717
      10095.88297379
      7322.16160925
      6351.68529019
      4362.76333661
      9229.99794984
      9820.16318164
      11197.23357242
      6344.10417596
      9177.09525826
      12835.66975344
      5905.71632315
      11125.21927922
      9872.50721418
      4208.44620565
      10210.34119949
      -2693.15883459
      818.37464360
      2136.44634920
      4691.20530199
      10162.77111026
      4582.50993677
      3841.17977883
      5587.20154279
      7023.41567268
      6346.99143305
      -4223.52447979
      8752.17607848
      7234.01292258
      -884.90879714
      4067.78414566
      -1906.11703658
      6530.98830402
      5363.69607836
      3181.26778476
      4724.87993277
      7641.67197199
      2311.58652462
      9711.41971221
      16588.63979646
      13176.09352503
      11603.07964821
      -3422.11145330
      -3959.37656692
      -9138.74952212
      -11686.38442373
      -281.81386056
      -3812.22442462
      2782.84994100
      4837.30584614
      579.42568676
      3664.98886775
      2427.37034621
      17305.31789494
      7533.06148208
      3277.72555940
      19830.09981788
      3018.52708361
      16778.16747443
      1278.51844111
      4745.03847675
      10023.24119767
      8753.40120998
      4046.24631361
      4862.71610649
      5009.92370329
      9881.07883417
      6372.18475110
      4286.18336295
      7174.24017100
      8787.37223066
      7567.54433619
      7874.92677214
      6280.89317334
      21720.30460979
      10513.54070591
      8442.86200147
      10509.17226434
      9652.84306231
      5564.85208614
      3242.63372826
      9187.22517572
      1690.47796596
      8089.94808641
      4790.06670997
      2592.91950090
      3570.35104821
      6463.45161900
      3097.28228597
      2210.45195019
      -705.11288807
      -1180.36313347
      9441.06401089
      -5261.79783217
      8999.19410712
      12239.49031388
      1587.53009694
      173.13317391
      2715.66388476
      6701.66256567
      4018.96007041
      3547.25743848
      2296.14540820
      7898.14871730
      8255.56768187
      4473.08145777
      -5650.57176109
      17499.42134321
      -10744.54943326
      -11074.73819296
      7170.87359681
      -849.85683582
      7092.20997158
      -7505.19073846
      2587.11976550
      2467.53971114
      2620.03077999
      3886.59897469
      12676.01326612
      6335.04055036
      4732.14199767
      4808.72446156
      3883.20546156
      3742.87348979
      3194.30061625
      3440.01310163
      4321.20919480
      4994.66003613
      6212.47460479
      -2117.30947408
      5439.26166822
      3870.44051826
      1257.43869219
      3048.27335920
      3701.94839369
      4643.46932571
      6745.21527033
      8896.26259859
      4956.26093993
      11704.93268610
      6452.49252795
      11960.61279470
      4327.77613232
      -60.72425296
      6813.91208039
      9232.18724294
      2358.17052224
      -2786.44761761
      3693.22197407
      8661.33577278
      1154.41681764
      839.90322161
      -247.87269436
      5216.36123087
      6270.53809723
      1435.80572315
      5964.36657017
      5709.44093029
      2558.95052630
      1846.08692367
      3458.26730185
      3443.53934140
      8578.86387448
      1451.81789597
      3515.45637110
      2820.10427075
      2386.11713363
      4698.14191252
      -87.73266080
      14185.72507028
      4078.34659588
      12003.93547454
      7524.11906585
      838.22308118
      -2578.89407971
      3266.23195148
      4983.66705769
      1372.32586840
      18770.66026738
      6337.33255453
      -30962.88851667
      3274.17215079
      1789.47778776
      2313.96390934
      11763.85288391
      1771.96782749
      7021.01399433
      9250.07193414
      2507.49372279
      11459.44670838
      4579.51338231
      8188.51267680
      13380.36027006
      8174.36785621
      7884.59506124
      7667.04742638
      5519.81925626
      3776.92012649
      1495.88532703
      6495.18810449
      4602.08909571
      4443.39495708
      6977.09964251
      3333.37670413
      2889.45165436
      12228.17533396
      9731.00445954
      11118.03038007
      9740.86558155
      6059.77722186
      7933.31917681
      4788.57106519
      5315.16840510
      4114.91106362
      10833.87435927
      4552.02556373
      7145.59887732
      4660.10290162
      3987.67990956
      1307.53626984
      3809.32722673
      2315.34126053
      3248.98584901
      2652.90942362
      2601.55733721
      6447.79815296
      4283.84268270
      -229.08863298
      6888.33120815
      1317.28979677
      2538.73182432
      6510.62397713
      6012.69472947
      7281.25057513
      5579.84263514
      6328.41417713
      -342.28003317
      11686.03029683
      385.54190288
      968.82569210
      13011.13471587
      -6443.02755982
      195.57506315
      2006.08298385
      -6048.61465642
      4708.70187929
      -19317.15986296
      3439.32525334
      5156.60103281
      2717.62663584
      7338.57294148
      8550.87150613
      4906.71218361
      2937.70785147
      9527.70552537
      3169.99924333
      15528.60100606
      17027.84789481
      5111.95879278
      9476.89035611
      4970.16768475
      17015.03841660
      9622.19893320
      6473.86573522
      2390.82996513
      4159.11972169
      5555.06055418
      4404.45780966
      10940.52670668
      11230.81464519
      1716.06153148
      1514.65733872
      3386.37056996
      8311.78394324
      5745.23659015
      2524.87847784
      5779.32533445
      8839.80731497
      12678.59348421
      12334.54406095
      7897.56439201
      3421.31612390
      3164.24637480
      5879.31763405
      8960.58637751
      6055.76402849
      3309.90498722
      2476.24289006
      7600.43115967
      601.53920143
      1405.03720857
      3134.84657191
      2295.68566103
      1589.08640691
      -1438.56020962
      48.56317911
      -1038.13208301
      64.56574496
      3973.19720274
      1766.74346380
      7294.25866992
      2217.62259494
      5469.11408588
      4670.65106398
      -3578.95963919
      3636.49863515
      -7232.56097383
      1952.58614782
      -4265.31058811
      2472.79898350
      2287.81131043
      567.62973330
      3211.75720808
      14672.62162036
      4359.73022678
      4077.03358320
      12822.80306143
      4156.59032461
      6478.75310268
      15685.32930272
      3701.14256786
      7806.32076615
      6136.52176651
      7866.00404712
      7539.39986224
      15408.69697117
      7519.67380913
      5982.09812325
      14384.25083185
      3949.77560575
      4185.65694473
      3135.85800912
      4075.31333693
      1179.38347293
      2372.25175922
      -169.21575212
      4718.31975153
      13447.84245737
      17269.94519080
      6189.08633522
      3970.82388949
      6903.39358354
      6540.52345937
      945.97969269
      9699.70106733
      252.42972136
      3032.10995434
      1513.71378423
      3732.92941410
      10555.82212296
      2426.00296793
      535.55472748
      1633.51461204
      361.08787637
      2272.87663278
      873.09918821
      950.57466874
      10777.63387553
      6381.12958185
      2241.96721224
      4142.41269863
      5179.74284602
      2189.37880401
      9394.00136969
      3330.70377502
      4564.26139895
      10328.02503017
      7697.26693557
      2376.16238239
      -5085.30981233
      6437.04338482
      5798.29659824
      288.89062496
      9609.58251217
      2933.85819272
      -6066.57492529
      -2503.47275891
      -4787.49660111
      3632.87435330
      1907.84443664
      6352.16369196
      3165.32413299
      5683.20087422
      4261.47975135
      11474.69535023
      4435.18611946
      6559.73023311
      10516.01996702
      4800.24091405
      6973.78576244
      8618.44195163
      4932.42472325
      6968.10725425
      2428.32518362
      11988.22014169
      6895.42512895
      9374.17703405
      10275.65462905
      5064.42894867
      6918.34207140
      10136.67760531
      8144.00313392
      9922.27219794
      5487.83562645
      8573.56847578
      15812.86133718
      9522.30569872
      10206.74309073
      4227.96595806
      3256.74383137
      2599.78762207
      2116.11510447
      -1288.95096606
      4483.29811184
      5018.73091843
      3287.13136842
      -5213.42321176
      6668.37303651
      4119.49006112
      2500.19877997
      3998.56399732
      2859.04973458
      -285.32744800
      3945.27495364
      1749.08962163
      3768.10782920
      1563.31189526
      1028.76462125
      -7.04259025
      -38.59540791
      2448.99814708
      4794.70807652
      6361.08080951
      2692.20151418
      6018.50441851
      16363.23219386
      3517.80578215
      -661.51657519
      -1423.48488908
      2171.12583804
      207.13099591
      -947.06161111
      705.72061758
      6579.07621444
      -40161.08078057
      3166.83353324
      -4503.60404443
      14232.72516307
      2391.02515041
      6878.29455067
      3665.31536923
      10866.52642440
      4463.70850443
      4934.54652910
      8291.17548989
      9385.29626655
      8621.08686357
      4502.92448408
      5889.85570997
      5330.12591110
      20623.50950569
      8045.84468788
      1574.01433338
      6313.62337687
      7406.58125054
      7329.33206437
      2829.23612690
      7090.73261697
      12244.00381646
      4691.95390378
      10572.47344430
      6698.36557117
      6721.90812443
      3621.73431030
      13558.19122757
      5281.83958194
      4412.98721068
      4304.36390002
      12445.84878756
      4917.65498448