<?xml version="1.0"?>
<VTKFile type= "UnstructuredGrid"  version= "0.1"  byte_order= "BigEndian">
<UnstructuredGrid>
<Piece NumberOfPoints="5123" NumberOfCells="5123">
<PointData Scalars="Pressure" Vectors="Velocity">
<DataArray type="Float32" Name="Pressures" format="ascii">
      45.04116070
      -18103.01403252
      -24484.16287674
      -25493.28008765
      -24261.99582305
      -28560.32273856
      -29272.80775739
      151.71272303
      -329.70689638
      -23569.16128140
      517.46901360
      -22140.43487678
      1460.89695881
      1148.47087999
      -20993.64946475
      660.49269699
      3771.99609340
      -27025.94562458
      253.39962861
      383.96667224
      -79.37192573
      786.23826038
      1307.95614707
      -979.09604649
      197.33031033
      -565.82958491
      1072.25800719
      -1884.31948864
      752.47874932
      -3620.98029698
      174.62259482
      2115.44001633
      -550.72971457
      -2243.26401143
      1157.59744315
      -2725.39601514
      -13263.59425546
      7263.44967602
      33172.36833243
      5763.91684753
      14428.03227716
      -20566.52803759
      -9.74587864
      -178.64449232
      -2858.73895017
      4208.63717357
      2669.09293006
      -2378.60471867
      -8513.29092364
      7122.12963315
      2867.32494826
      5019.34006292
      3105.69751395
      2161.08609802
      943.01665005
      2751.40354860
      468.78690082
      -234.53317837
      3322.13273175
      670.53845628
      -1119.98985607
      956.24911772
      -331.48637808
      895.85540168
      -4229.65666690
      -4144.31254087
      3948.68269639
      5389.50317142
      2592.86652602
      5576.91568316
      748.71852772
      594.67408060
      1771.51474341
      881.30356876
      58.34353074
      2908.14414112
      727.78063505
      2635.24701912
      376.15490006
      19.92213211
      214.09992292
      399.68081749
      -482.17375033
      746.41478155
      644.22224635
      488.47006145
      243.68847341
      1040.50196626
      848.27351705
      468.58213468
      1238.96790549
      1915.78382154
      -158.16421908
      -513.61528015
      760.52823221
      -2332.61336990
      369.03837448
      1414.61754464
      1288.75167134
      3918.22674704
      -692.85826128
      13160.54497273
      -72.31898277
      -1407.13502820
      623.41293216
      -3247.66967976
      -6237.82123850
      -1136.68956824
      -7549.94423320
      1148.42352608
      -877.55276698
      -13904.48306080
      326.84355134
      280.85193503
      548.93373243
      -6250.80449132
      -11071.73021215
      -2594.85228924
      2058.78315180
      -726.68532141
      -3394.43452175
      -753.08809242
      3452.18189540
      -181.68943121
      -24.81271851
      -1748.90337373
      -257.51752140
      794.58835248
      79.07639728
      1379.58163361
      -324.63248624
      4555.77479151
      -24148.52814249
      850.39337708
      520.29580729
      955.88199972
      1300.06973269
      5668.05903206
      1207.02454358
      -608.40434691
      -1544.82286075
      -342.99967116
      463.27550906
      -195.52239183
      1291.78756528
      -808.70987788
      -1192.17155539
      358.08296626
      -334.94232320
      -1010.88468928
      1426.09518936
      -104.10963091
      3342.29702074
      1676.48415578
      576.00223845
      -433.69486288
      4081.54490066
      -70.60075467
      1694.24919728
      7180.62762086
      1217.62927176
      371.84097206
      1478.03711247
      -680.88587816
      1129.32737284
      -1045.47273475
      2321.02095050
      -448.80289449
      1850.92267430
      -147.21422556
      -2363.97065508
      -7119.89330065
      7150.56607005
      2686.07052020
      6417.47332938
      -2355.22379518
      1023.00188910
      3664.37277411
      2212.36565452
      2273.16458787
      2072.52021083
      3855.28594945
      -653.09047945
      7525.06968635
      -5703.76159573
      -13066.49689342
      3484.32097187
      12391.13809545
      1836.96006283
      3977.72611377
      1628.10422202
      2664.59535922
      513.70075378
      2205.24319940
      -2377.42898351
      1667.21497504
      -524.32363110
      2556.60101322
      -18716.99888393
      587.80382583
      678.04749316
      2326.16314076
      1149.96780728
      -1932.62728393
      7520.06323989
      513.89786710
      1981.48539301
      3180.09807583
      6312.39520810
      962.95760087
      3592.54508962
      3145.19694341
      -3230.14798376
      1464.03992142
      -110.62247256
      5213.77274838
      -131.54027295
      -914.09834016
      129.52506064
      2981.67680309
      -1309.33949396
      3936.54734694
      11916.02755249
      2091.78685172
      836.84250604
      -892.07005150
      1916.53739074
      933.73308487
      4024.94182768
      -5455.39140172
      556.19331259
      3242.24972982
      10880.97338743
      9011.09156920
      -113.22944967
      2259.70201374
      -1116.38727465
      4636.78797351
      1930.59125306
      9165.96093371
      -1594.22147961
      -2198.60735535
      6339.56438919
      4553.20052695
      901.56051539
      3135.87959159
      2687.15398263
      1997.53356815
      -1319.59531104
      1592.47780483
      771.65382272
      -3886.44572087
      10318.46984490
      4075.74715737
      -637.69073008
      -1015.49815304
      6209.61990792
      833.13593313
      827.19058859
      -1764.91831775
      2129.34154744
      2723.34943330
      614.10688041
      2368.24709777
      -27399.67254656
      2654.75817362
      5830.45961103
      3036.05972068
      2687.87297302
      -986.98113011
      2660.53866312
      -877.77353837
      -783.91390514
      -405.68180664
      5367.30592658
      -4900.32907397
      56.13454816
      1186.48145712
      -513.10098626
      -2372.41385857
      3774.32834711
      1297.47404542
      1990.72319656
      -1762.13069252
      -103.67654656
      7656.48180734
      1281.78133157
      -91.11541697
      3618.06649734
      1646.21100457
      2013.78036142
      -296.30268251
      1747.56654802
      364.32849449
      1973.49195012
      1035.32727635
      2178.01605158
      586.83066824
      -182.45354780
      1403.26007314
      794.08156804
      -1249.05573549
      2292.17340416
      1943.00597898
      2839.49173629
      2583.96518233
      163.03109624
      322.76260505
      560.98311897
      -564.88945378
      968.33218211
      -5354.34333788
      -2388.84654421
      2385.28703725
      10079.84952303
      -4515.78854820
      350.77482078
      1828.21054951
      3414.40218692
      -2031.74179089
      7084.80857485
      3472.56961920
      139.78075834
      1131.66429105
      -1988.87932987
      1798.46547488
      1014.15979567
      1687.39916184
      -3552.53418952
      7925.43954418
      -20980.90566408
      3358.40393308
      -264.39786187
      2234.88839869
      2651.48652502
      1163.52651612
      -329.64328554
      3748.26150968
      1224.80629677
      4821.79744930
      3146.25947036
      3299.07627252
      7540.35173685
      4618.58214360
      4951.35006598
      -5286.52321916
      180.28837779
      2860.75724238
      3715.80246487
      3000.64996525
      6766.58280015
      857.10499520
      1322.30810911
      580.30902914
      10096.78278115
      5077.62305999
      1258.72969558
      1673.87209985
      646.15499768
      1252.01569576
      841.85332782
      753.79029592
      152.58722458
      -3362.35673222
      2137.88302289
      1661.71197360
      4182.56853560
      2027.93883765
      1042.59666457
      1857.30679139
      4093.24695670
      2111.59532601
      2523.96148160
      3130.42255353
      3354.18011679
      6002.04145388
      4434.20679234
      111.73963718
      8293.76347110
      -729.83003532
      2355.60032030
      1178.56395816
      8030.85162623
      6064.89301530
      2168.07685846
      6615.26636192
      2572.43813333
      3126.26090264
      -967.48690184
      3253.40230205
      409.76904255
      1525.99624311
      -510.90038819
      -489.24013595
      4573.58595044
      5097.92288015
      1748.69448900
      5365.19690898
      1552.33191539
      6608.30786014
      17391.44378459
      13263.09999171
      7679.68680331
      1559.90115345
      4652.55024590
      12824.16246721
      14402.76436523
      6057.58467746
      3185.07724839
      -950.24723130
      7527.16196825
      7390.61952855
      4897.96308754
      1651.54989837
      2920.60877749
      957.62885405
      -692.12813529
      3142.27086606
      10009.07860753
      20897.02750725
      2559.26090045
      4481.10278979
      3588.32460867
      4493.34826063
      3207.95634292
      460.07549263
      5076.38865760
      687.07163917
      3123.12265167
      -2539.89469985
      2788.29080960
      268.18103692
      7133.86971111
      382.52092098
      10334.12848835
      5660.48137642
      3864.35146651
      2917.31144552
      692.17048217
      854.97114006
      -259.57541338
      1185.27925246
      3790.91479274
      2084.88768063
      2639.07295616
      1048.34957590
      4534.08227572
      7249.16639471
      -2302.74212702
      4729.30665942
      4534.11079039
      3487.93963264
      9826.95778288
      4980.75403343
      5891.24285723
      267.47441980
      669.98934712
      -76.77159466
      -1490.23292530
      2281.63786798
      2052.01759601
      2914.66773025
      5338.88290261
      3942.87134776
      5756.42536406
      13333.19145938
      12013.39618833
      1599.20855503
      3862.25995201
      2556.50982429
      2631.97223769
      774.35589487
      3028.03333667
      7623.25255905
      4006.15528073
      7381.51729465
      6571.33989176
      15845.61361332
      5055.23946070
      5802.38738369
      3702.18300901
      6782.90511369
      10358.45293414
      2325.02850638
      2495.10472907
      3896.37840006
      7341.21092191
      9945.95752640
      6433.82694750
      6153.34793310
      5222.47453285
      5882.10132988
      6723.64258960
      2789.52053766
      1839.35973120
      4083.22574225
      7410.53524927
      2906.99668954
      3514.09882029
      2388.04171213
      -884.32002289
      3930.55232118
      3545.18877965
      1613.63886138
      3649.03159812
      1476.03005399
      800.50331877
      1645.01008583
      537.59935378
      6808.25769770
      -2625.90659748
      882.25775201
      -1800.44849284
      4012.69948560
      992.33481533
      8239.07293620
      12372.09446473
      1575.06450915
      2975.64752490
      1253.16575719
      3549.87794831
      1505.42661933
      558.05098955
      773.55512553
      761.72409686
      -270.29645548
      1825.87969490
      4152.26749746
      -21336.21804100
      4887.01441623
      11353.97451679
      -7100.77985535
      11230.20289435
      -0.40068960
      18563.71983489
      -1460.61076012
      7260.51434176
      2931.29024242
      8829.76699760
      4097.95040298
      11527.75394283
      5249.78599682
      13137.58698929
      6360.93475438
      938.71598537
      7303.51939702
      6990.20026559
      10146.97191888
      5931.36584530
      2760.92083256
      8707.87165509
      6954.53890077
      12017.86410434
      5961.31892580
      11996.03508496
      615.56000657
      878.37892620
      5232.55814431
      4849.93044901
      2026.50907905
      2093.63696778
      9313.30293504
      4677.75063084
      3349.49123117
      4961.94501008
      806.79180607
      1828.70683619
      10280.90491593
      3718.56092165
      3072.93127133
      3181.56989562
      -1354.99335110
      4161.87850192
      3875.91474677
      3376.67796453
      863.57616225
      3014.34263409
      2911.93831655
      3667.07393988
      2820.90357792
      5428.71152375
      6350.25473238
      4228.77221252
      2258.46259666
      1426.77772791
      1146.97107463
      323.18434932
      2697.24270652
      1766.66842998
      883.46175556
      -1821.13096583
      2607.41299231
      3464.45054578
      4169.80118496
      4399.74381644
      -16161.55176151
      3290.98910446
      13775.36516068
      634.16700951
      7153.92611277
      6074.33030048
      9553.20002472
      14882.83821028
      3176.00511658
      1836.32502934
      12627.40740967
      3435.01047186
      5935.16273244
      6529.87985662
      5260.95176864
      4430.69007683
      3568.49055865
      1803.57754268
      5868.61653003
      5995.56593787
      6853.26450985
      1719.52575684
      4680.07477157
      1010.45875078
      2982.48471614
      1244.68142433
      2595.50918834
      2002.57147136
      -604.10087569
      -1621.76313478
      4556.92184960
      3663.21467799
      1790.57041636
      14304.30899964
      2962.65860088
      2844.81764043
      5608.70597788
      4868.38371527
      112.27576740
      -722.85310894
      4045.13989984
      7921.42268494
      3508.85776691
      1796.21421544
      3440.97883133
      3218.55930688
      -2794.85860378
      1070.25096988
      2490.92939260
      666.00370628
      2229.11632205
      9531.76969694
      23.76565547
      -579.48965677
      3943.95691715
      1828.44971744
      7476.44767195
      -5613.47501647
      209.73279306
      -1577.70164503
      1595.05440741
      -3732.82679992
      -3941.18036454
      2718.70358383
      2109.47022549
      -18378.22992136
      -5122.03323266
      2575.96255752
      4815.28978892
      8384.96781189
      4699.43070629
      12154.78392155
      4968.69971365
      12732.40875746
      877.41885540
      4584.58765280
      8196.25419704
      5662.29269925
      14935.64739161
      6632.69931831
      4845.34398139
      1538.19193098
      576.57639220
      1133.21028976
      53.65449301
      2060.22887097
      -261.03376838
      2239.43299886
      3480.79832393
      922.17175099
      2041.77234114
      2595.13030420
      1362.83023064
      3751.12134505
      2430.67789967
      1787.86023170
      3512.03481223
      5868.72564017
      1714.13766922
      696.87269166
      5186.52397955
      3003.69469232
      2795.61606325
      -3179.07128249
      5202.42551990
      4596.90440378
      5126.32516281
      1205.34334581
      2351.24564182
      1160.97775419
      -29.24853444
      5768.81618482
      6553.68802903
      352.71995459
      4116.31368297
      1995.13383250
      330.54707694
      2234.46172527
      2723.85314676
      4260.29940705
      748.32848397
      829.57362614
      -3409.41027408
      9073.95384060
      -2106.20024070
      706.13572177
      3245.72844493
      451.40509459
      416.69808366
      165.20882911
      -3419.87621903
      -15857.23209146
      9785.01666400
      1297.20825147
      3636.75875672
      4894.40264765
      19619.05239217
      8960.06077309
      9832.68648505
      11096.05751776
      13933.66056128
      19357.17793162
      10752.35151604
      6245.08102020
      15522.83297580
      4147.07493491
      3058.32865591
      2823.05516876
      3141.69338979
      734.22256278
      1157.78634359
      591.22174587
      4025.82569085
      2022.34938239
      1132.30882154
      2785.70153669
      1397.69767688
      278.90569731
      1571.54641531
      144.67477080
      2061.08634246
      604.37322422
      1477.96517201
      4791.11642828
      3663.26967471
      4953.84428597
      1532.91667306
      1318.76702973
      4493.80382971
      1804.51378439
      1709.83278530
      415.71692887
      1419.75898285
      781.37839582
      -921.64645523
      5321.81060380
      5846.98630555
      2400.91577273
      -1098.82687525
      959.02207398
      2385.61186069
      -2337.40530367
      1821.24355944
      -1458.61839110
      1726.60909047
      -900.79458777
      789.86484778
      3869.66540841
      2170.04698231
      -2663.80054851
      3462.64355745
      2416.82729220
      2451.60216839
      -2022.84440931
      1873.00966906
      324.65896097
      1825.55888144
      -8662.26986219
      5687.73125307
      8337.43410440
      17082.53278260
      9277.51336584
      90.53616731
      3148.11405301
      8714.38847465
      6368.08297894
      6044.18773456
      3060.25981400
      1985.59605903
      2574.16642267
      3773.46259849
      2568.45930780
      1264.78648645
      4422.33359227
      1279.69592994
      311.95307944
      2069.32072579
      2323.13879613
      2629.99819606
      922.08801726
      2425.46367892
      2058.03484582
      2745.46871823
      2310.28967171
      1550.69165860
      1891.02344288
      4646.48940190
      3337.34310486
      396.54346481
      3671.16527315
      3858.25998087
      4484.86129334
      2608.01374008
      2616.02850723
      1445.52054099
      4004.46361701
      360.43392847
      -1945.24309939
      -1246.82668854
      4364.93046253
      -702.99503482
      780.15803191
      4656.96484371
      561.94602780
      2176.43106065
      3607.17657030
      1898.61653234
      2462.60794528
      808.36639393
      3560.71852986
      1365.76193036
      1556.69533911
      465.12813780
      1551.97196872
      1351.29659533
      3209.59728671
      452.43926140
      3848.51343799
      325.77960633
      198.93189883
      432.79362793
      3644.80114039
      -218.93655410
      -7886.36499036
      5673.40600235
      -1578.52708264
      14819.89219852
      12952.99616370
      6520.57490115
      4626.52926074
      13139.10112693
      2359.59039752
      3917.59831565
      2967.99087155
      2779.08185075
      2503.53132628
      7617.24317997
      1154.91593401
      1414.62871591
      825.60597429
      142.86366603
      -1353.12623800
      3401.38267150
      1564.03629355
      2985.76146773
      2122.39520314
      2131.99409769
      1326.74826299
      361.98265943
      3239.54977370
      4340.93425854
      2173.91566150
      4980.15362690
      -719.15892739
      1113.10999334
      2417.26278783
      3578.26227220
      400.76638482
      3967.33240217
      3445.35172481
      -445.61228695
      2926.08473480
      2234.69717714
      3323.34872034
      5271.93777115
      4620.36426890
      3439.88935069
      805.55239447
      2867.23569532
      3989.25268241
      1148.74265443
      -1297.74435604
      -934.32539314
      1529.27353785
      1968.49915513
      4840.32498854
      1159.03614598
      2344.29089123
      417.86996823
      1191.88834003
      1577.28039676
      -99.78928087
      2195.08535839
      -226.31859399
      170.79453607
      4799.69153214
      1877.36656143
      4543.68845853
      1659.13788623
      4734.33384561
      19151.91327222
      18805.85756852
      5179.03085856
      11473.54715988
      1261.58131510
      5634.00214704
      5747.23143178
      1917.59862727
      4157.07614935
      2979.59252758
      4043.89105239
      3286.06065518
      216.83960573
      -112.32440475
      1618.67526811
      3002.90780275
      2938.26541881
      1750.74624232
      1154.37692190
      1059.06619644
      2294.62561130
      4805.11810490
      10429.35656078
      3334.86902695
      3898.00787680
      1535.26292580
      3496.41508844
      2828.36550096
      13.61816484
      -518.60121491
      3098.07785607
      1439.70551954
      4932.31446201
      4411.81562038
      1324.52641044
      1179.12767116
      2154.96939103
      1629.51955380
      1151.13982091
      776.39920821
      -2103.19357640
      2977.24847738
      379.68267219
      -3342.95803056
      -516.72536537
      608.19607519
      1223.65849683
      3635.53271925
      1339.42258021
      -4193.36314098
      -1313.74194417
      59.00891466
      -121.62459589
      1395.20899357
      1549.12019001
      3629.04329937
      7076.18976208
      -994.76258243
      -604.53863763
      268.46031953
      6386.59309682
      1878.75596441
      2554.45676160
      2434.57925259
      -4088.86643405
      -28338.34729544
      11966.19127469
      4735.26105858
      6128.45828500
      4502.26172959
      3417.99118119
      5158.39825116
      3563.95063413
      4340.41158726
      2982.80798198
      5587.77816075
      6068.66920018
      2744.27136549
      2305.65678121
      3679.34334262
      2239.59999579
      661.76921884
      3101.92446014
      462.00685757
      2467.48533577
      3550.24857252
      2028.93304427
      1062.09770907
      250.68490946
      1143.65678793
      7449.39585971
      5892.17018006
      501.57913750
      -155.82390356
      3887.11712864
      3923.97801514
      2861.22155677
      2471.57894964
      -142.53055343
      -70.99078146
      1131.54461641
      3696.27350293
      948.44441917
      1395.29399632
      1138.68134785
      1636.39325904
      2416.10886621
      1949.56320409
      1268.71631375
      1748.18487717
      5202.53594671
      4704.12625592
      1235.62527820
      1510.52476632
      1170.90947459
      -1254.09505356
      377.49307210
      379.74938263
      621.67942661
      -82.53474687
      2424.57547244
      -31.03941380
      2049.58116366
      822.48741901
      1703.63646780
      -2896.51795327
      -779.92759663
      -676.02606082
      8344.39760841
      4196.99618029
      -12417.00623962
      10940.21684210
      5272.68281444
      7126.69858067
      3692.56096727
      4097.09119790
      5131.94384844
      3870.83329240
      7077.14880717
      2852.20275704
      -1750.60945294
      3292.82281373
      2310.78299686
      3607.71205620
      1685.51007792
      893.76570787
      1411.14958044
      1500.27990127
      -139.37023320
      1646.22191947
      2578.68305221
      2918.07782305
      826.35331593
      2732.00778603
      1343.48447083
      3992.38542143
      1706.53785058
      6617.81928660
      1296.64293190
      1657.10983610
      1728.73315320
      1202.46140208
      491.32672461
      2085.87368798
      954.86714511
      3797.02372352
      566.39793524
      2236.92294423
      -13.42618564
      -170.01853910
      107.82822581
      -1145.48506299
      44.36383625
      972.19044743
      615.75654059
      351.35581466
      2216.88255256
      703.08481490
      4825.45388042
      928.39872720
      4490.97429880
      1458.69815291
      628.78123822
      -3349.60215869
      -3544.40659807
      -107.17617008
      412.59976321
      -2387.90232553
      1356.31251056
      -1070.40672367
      1639.40778114
      2512.51455163
      1975.37661432
      7188.63544359
      6406.49376314
      4149.34065863
      3223.58914194
      2922.96984699
      3145.39777242
      6073.48764232
      9160.59300231
      6565.82425624
      3813.95754137
      2471.98300979
      -212.97679916
      1954.23947437
      3157.19506667
      1847.24872034
      -457.56606312
      2854.62726838
      2179.73653991
      1329.16802578
      -415.20925219
      1279.86436237
      1039.35832719
      -2009.48469669
      106.40613230
      2913.04924604
      3442.63176888
      1357.39312016
      1773.33391859
      4795.77026125
      4340.51303464
      2930.26786432
      3677.17315389
      3000.55523076
      -1220.89907745
      2260.48465994
      576.30535934
      1973.84078408
      -1038.11979361
      1896.20784096
      2113.39131208
      95.56724435
      -679.44733188
      -176.68076447
      487.31269734
      261.49744919
      3516.12882141
      2961.25864064
      1582.17682101
      -276.71467699
      1494.20479290
      -435.64894800
      -430.19941825
      2943.65188162
      5240.21615756
      -1286.33661605
      836.72441075
      404.64552724
      -286.35921296
      -478.50145904
      2934.18125909
      -1064.17760027
      -533.00352212
      1068.84616733
      1223.80301179
      10327.65825528
      2077.10247634
      6318.29635504
      -3839.51200656
      2532.18312008
      206.00650517
      -30962.88851667
      -5678.75686574
      7025.63935605
      6793.15770352
      3884.77114574
      5539.30704793
      2968.08511380
      200.03980598
      2070.17623266
      8435.53746882
      1278.05287982
      3296.66305546
      3941.25566770
      4964.10957453
      620.49640215
      3513.38141987
      3227.33466003
      718.76168968
      1545.36090531
      2101.05146266
      1625.31839482
      1662.63021413
      2498.41362793
      1787.99477838
      2220.47605855
      5077.60935656
      3687.64217916
      6355.91356136
      2612.37453220
      1300.74022116
      -1665.42790032
      -3498.45793333
      593.72016637
      -4183.17855571
      3864.23657357
      403.21745789
      -747.61630217
      -621.52315491
      -1410.39692367
      1957.48337108
      1811.94941189
      474.08492771
      384.22436849
      2433.96443391
      533.65869916
      -292.54957758
      1276.29586438
      705.13373528
      18.95523759
      5135.26669685
      -890.27767477
      -2097.80269198
      5284.46468154
      -1160.17620189
      -929.11698201
      402.96005658
      4166.05874391
      3636.44755952
      1977.77464179
      -3521.42236521
      4101.11144935
      5685.61046571
      2764.94960554
      2219.24382258
      2134.18232299
      -1586.94461291
      -19317.15986296
      3439.32525334
      2073.66907294
      2349.37880202
      4371.45648123
      2678.18701373
      -2934.59774510
      2003.63314325
      2522.00835493
      2559.27374202
      6553.94403617
      3614.56223121
      1464.07446777
      817.15962505
      1947.76315439
      2468.80560279
      3272.23098597
      2895.47595423
      906.05911732
      1667.50253530
      2164.16904916
      2034.27122088
      437.38818576
      990.33349927
      1020.40668551
      1944.04925622
      -984.32258049
      1337.54493621
      1134.18220142
      72.01263996
      4037.34757754
      129.68316126
      -66.51655537
      971.57420479
      4339.91133867
      2722.42305495
      -487.41976123
      -669.74680755
      1957.29804262
      2494.89636982
      747.74045234
      1856.85708979
      912.08792181
      1026.94058540
      456.45478395
      2414.51307243
      -150.48081896
      -1337.10618116
      2454.52843598
      1254.69441642
      -1077.29443507
      640.01885720
      628.62528352
      -173.49219883
      2090.40270248
      -24.62809199
      -939.62883808
      -551.65576152
      3862.08083422
      1312.07975487
      3051.36835320
      6424.06731880
      14688.12953657
      -619.19310596
      3318.40269902
      -379.41040452
      3211.75720808
      1009.27610082
      10452.11236372
      5975.10622810
      8395.99093240
      1241.92998449
      3291.52120447
      3005.23221438
      1564.42812158
      721.84516858
      68.67278463
      2046.11705003
      1716.79671428
      6956.45405811
      4099.59170400
      1204.57761062
      1145.07629589
      1438.64050964
      1912.71685946
      1658.26702996
      1032.67360913
      1337.86576085
      1410.20806788
      1168.23252548
      1144.86801617
      1775.61654861
      5619.48726265
      1426.07885039
      1870.47955457
      1455.87451851
      5530.52576567
      371.94902532
      901.15776832
      2171.47101914
      2040.95410383
      3410.38831828
      -1266.54816679
      2283.35011661
      5050.64059422
      -778.90061502
      1949.15686220
      1167.21920939
      550.75910726
      550.30854928
      926.62751538
      838.39535005
      492.04000875
      31.36023992
      721.73372610
      2408.64006785
      -2485.98247501
      1032.48196899
      -1377.27209260
      1700.77987556
      2593.56431640
      -60.97789281
      1417.43270821
      1060.23514130
      -40.41053492
      2919.21405855
      954.01428158
      2951.74226050
      6469.57328603
      11136.86176284
      7687.17336365
      1638.90322515
      12182.88156588
      1351.07896724
      4612.10225864
      3715.96783105
      4340.64366599
      2785.62014069
      2434.75534767
      4304.36830284
      2106.58759434
      6459.33321261
      2111.01217049
      1312.70294835
      1217.80035918
      2920.50896956
      99.87429182
      -3091.86882311
      2696.83526514
      -749.14257537
      1475.94098203
      1566.89829370
      2221.17621331
      3190.94878802
      -413.93731562
      2096.35855941
      2827.61719369
      -115.18248124
      2297.15348869
      3117.41707155
      1138.32048537
      2221.80485144
      2122.40874926
      645.81289885
      1487.86642413
      904.69520490
      1150.79489564
      -1133.64358926
      2140.28282943
      -1488.14912414
      -1071.55228033
      -580.00835546
      1749.51103634
      1226.49782827
      -2651.35243143
      1352.66433476
      -565.34152887
      216.47544663
      2393.73391264
      -72.58354115
      -711.43627380
      559.74203262
      -1154.97621705
      -812.97768925
      1563.24293820
      -3330.01178794
      808.88982253
      925.18615015
      518.36318834
      3033.25569317
      -1432.82098663
      -3026.71624426
      5402.31613670
      3017.62425619
      2703.92265766
      2025.56518620
      606.09463195
      -965.31536994
      -40161.08078057
      7308.13135531
      6476.40471529
      5353.96859561
      2626.00283446
      3188.96941632
      1666.58342324
      3864.76417566
      1020.74401062
      1713.08762772
      2733.54976576
      1907.98826561
      3043.74383302
      7129.36383665
      5260.39239994
      1856.73878705
      3247.75646156
      1203.19836970
      1201.76644092
      230.67031392
      767.88894070
      1508.45713882
      1731.23160329
      1005.29986724
      3856.13481524
      -171.23748750
      4824.48436824
      -490.12531792
      918.37656601
      -1466.07514895
      3497.90267996
      -1038.61556858
      548.56581301
      3614.10419370
      1913.46733758