<?xml version="1.0"?>
<VTKFile type= "UnstructuredGrid"  version= "0.1"  byte_order= "BigEndian">
<UnstructuredGrid>
<Piece NumberOfPoints="5123" NumberOfCells="5123">
<PointData Scalars="Pressure" Vectors="Velocity">
<DataArray type="Float32" Name="Pressures" format="ascii">
      -290.46191552
      -19466.53860643
      -23634.76215066
      -25493.28008765
      -24261.99582305
      -28560.32273856
      -29272.80775739
      1446.23793943
      -140.84819114
      -23569.16128140
      706.33783773
      -22140.43487678
      -965.02980067
      363.51117213
      -20993.64946475
      -773.50601571
      1648.46939612
      -27025.94562458
      307.63379670
      395.95247862
      -523.14275242
      -583.61790843
      -1232.40964803
      27.07308411
      -1225.05939139
      -44.62602533
      -605.96888393
      424.40862995
      -1017.93295129
      776.88503298
      271.31918361
      281.56439276
      835.40880609
      325.35886846
      -371.25288634
      -146.44564457
      401.14124290
      781.21021172
      888.06826395
      -7140.28535747
      765.54669237
      893.45762974
      1916.77508698
      -138.34539192
      -337.34669677
      445.77272142
      335.78825448
      1096.60025376
      730.33267246
      -1151.24090502
      779.56559456
      -1447.45805648
      19.52524597
      326.68448865
      550.17613673
      330.71938267
      147.99131991
      322.33575041
      962.62460949
      182.59596624
      867.09170578
      251.27577158
      518.24339271
      438.97037084
      351.33373412
      756.39372735
      6990.60684819
      5389.50317142
      840.92596097
      1555.31775118
      459.02076605
      534.93844134
      735.46092050
      1193.50981195
      1303.70587070
      3698.54108612
      -233.65444787
      324.83565023
      514.04350387
      564.57616880
      331.03669514
      717.80981755
      1088.98665108
      -1513.26512948
      10329.27965649
      806.16543465
      -594.14701362
      3777.47184385
      1436.65669533
      -1549.15510535
      868.07437861
      1298.32924766
      1907.14168200
      3874.93009642
      4326.09616610
      2521.26699577
      1366.65066861
      891.09548080
      -1044.52249546
      -494.38110568
      1269.39129435
      900.72421166
      804.48700432
      -2639.22741198
      144.87543322
      -900.37771439
      -196.59247756
      170.48816602
      -179.93513191
      45.57911736
      -1034.94856935
      -443.72039384
      -272.38584267
      -841.80798076
      -738.92494582
      -103.47744120
      424.43831322
      -723.80351813
      -1331.22450419
      -1606.96123709
      -192.22675720
      569.60859548
      291.72002141
      500.04003621
      677.55752637
      -868.02673533
      19.76821111
      -163.75041259
      639.62056590
      531.97178870
      114.46422545
      60.42548740
      -24148.52814249
      2794.75607348
      918.27752628
      -757.93384012
      1365.02393960
      2729.08033491
      2882.99592830
      514.26366507
      471.90212200
      812.79204237
      1786.60889897
      2072.57112877
      1467.36285938
      193.13840044
      5563.90870671
      1411.10881814
      3917.91392885
      -1110.39044166
      1134.41050882
      2318.75284226
      -3347.54041071
      2861.93392270
      1760.82624331
      1350.41671227
      274.77514015
      389.79242491
      281.54873560
      -712.84110670
      3059.21734751
      -1639.95512732
      1362.03333189
      1469.37985691
      3964.32479789
      1901.55871393
      2811.79723510
      1500.67519776
      980.09775582
      750.50322021
      103.71403778
      -1543.10301266
      991.45372899
      -698.19550607
      -1322.33426244
      1510.49643992
      -153.65117502
      152.76586037
      -1274.92360344
      -1145.21872188
      -498.76361373
      2450.67846302
      -1631.32820015
      -504.67057411
      -1566.35386511
      -692.69060914
      -471.64345958
      -550.30656585
      -34.81802773
      -251.45764905
      -830.97373787
      835.21566935
      -16.21357811
      416.64633035
      494.37194813
      315.54230930
      234.23516460
      107.59508982
      -18716.99888393
      3163.32272246
      2476.15767629
      4875.16748912
      2099.02275098
      3767.46660688
      4543.71510176
      -1815.81356229
      621.16359197
      232.06532275
      307.63195452
      490.64482743
      1390.14637234
      814.78449916
      3823.69187901
      2015.03000615
      1525.14781454
      3604.81405724
      4858.43862475
      6980.50546561
      157.83935343
      -43.34434802
      -1020.39612080
      471.90758208
      2545.72731909
      1056.20527720
      -1226.64716000
      6008.38898162
      -998.46696019
      1318.41009451
      -287.51390537
      -2822.09512032
      -215.49278898
      -660.51268667
      952.55202194
      1494.59833970
      -2085.95743601
      3766.56244353
      1742.17193580
      3591.80032705
      -2016.85368844
      1814.60820897
      167.23378635
      -239.70893031
      910.63328104
      287.37205214
      -2999.45269669
      1581.97922314
      2944.09778960
      2540.60547714
      962.73803605
      1454.33484125
      -1163.41238088
      2245.04160430
      3032.67598709
      4258.14590787
      -1703.80295353
      -1131.22156342
      -47.95247401
      -2.04157382
      -1499.02577801
      -755.68047859
      -790.10430122
      -848.33911687
      423.72675660
      -609.81345531
      -27399.67254656
      5244.53278419
      5347.16914913
      4557.22587416
      5137.49840697
      5483.41610103
      1934.90522531
      1308.34658110
      3602.35495645
      -2738.72919711
      -970.19720683
      -2336.80684561
      2082.61909983
      3296.35277024
      1556.70914761
      1949.25555136
      5272.14299891
      2244.52587838
      736.12334251
      478.91107403
      728.73170256
      1569.62348315
      3155.61984953
      2372.32158117
      7992.17246761
      2364.62750111
      -4657.20789856
      463.86651552
      1838.09672479
      2415.16899474
      5334.84145141
      4306.34576972
      7099.79078325
      1715.13323346
      -106.09100914
      1788.23731361
      1215.12039967
      2096.98764093
      3142.48585585
      565.66570704
      375.24225167
      770.80565047
      233.37876725
      -43.35004375
      604.98696496
      1339.93925878
      567.24516061
      -1849.40860335
      827.04614858
      477.82107308
      640.89702097
      1875.82808513
      117.94549400
      489.04701643
      2089.38032190
      1277.41294166
      1743.61243441
      3733.28780336
      1311.45772596
      2285.85130009
      1650.81159405
      544.83898661
      -1142.01433343
      -91.46818765
      384.98843741
      1128.60915298
      -20980.90566408
      12887.17331410
      10342.40748173
      5084.17815221
      3470.42241187
      3640.19254217
      4837.57796046
      2632.09325726
      608.37102280
      4482.02543748
      2632.01478307
      3791.29647915
      1701.21703716
      2487.81665556
      3894.38547700
      269.14318622
      1858.44353003
      -409.41675115
      2492.39703764
      3070.20193032
      570.76635669
      1099.33166569
      -599.64044549
      -549.88577607
      7609.23255970
      2396.21073537
      374.19856094
      2760.18042049
      613.93699886
      3543.82112862
      3375.20528438
      -2517.36995888
      2364.77237057
      2182.59896646
      2220.55635011
      2022.71879579
      4070.80902119
      2683.47539621
      6026.40977057
      4926.43748977
      2098.22710450
      2748.86550466
      1985.59967013
      1757.52419256
      95.08060957
      687.01075805
      3389.21623395
      4008.36024384
      2338.85378500
      1236.49420729
      -656.79546831
      425.66880811
      -2459.02435241
      128.40331851
      1109.87674886
      3269.34885964
      508.04387720
      -486.30085738
      2684.08509397
      1473.29568797
      290.49191975
      552.76376484
      187.39510976
      -916.85524118
      -1179.38000544
      -460.29178647
      5994.24128673
      2471.30452042
      1581.13682460
      2285.17546339
      4831.74814518
      5693.93791220
      2702.73463820
      4163.40798479
      2025.68880701
      -1773.64822640
      3719.51738404
      2869.46744302
      2831.97162377
      1739.92849749
      -3871.94778402
      5761.61859169
      4818.90730623
      4614.06975949
      4607.93052028
      7402.18534648
      3213.29446113
      1578.34673502
      3209.78578241
      6762.59281400
      5020.79896862
      2408.19433225
      516.60308138
      5967.40278966
      945.69003821
      -729.94041304
      7275.95723621
      866.38835147
      7557.37938819
      1399.54819775
      -4249.20799667
      1282.50186438
      -100.84020397
      -1257.40472974
      5848.96688471
      153.22232126
      2688.66097181
      5135.86819347
      2458.04082818
      690.54210495
      1208.09610441
      266.13433036
      -785.28411104
      -240.54369959
      3941.42179717
      1442.23908767
      452.39715966
      3370.70144188
      968.14661656
      379.99611207
      -307.73036149
      582.33056460
      130.01193135
      32.64291962
      3422.60826365
      585.09039565
      2204.62988366
      -657.25564462
      427.51059239
      -168.26448476
      578.45226071
      -774.84775371
      6142.75652428
      3332.72106722
      1733.78069170
      9703.54301723
      6148.80799759
      6540.16169756
      13177.90083615
      2629.16825498
      2150.42076836
      2218.54731253
      1156.19216832
      2210.22258987
      2363.15809811
      1483.68992602
      -284.22208689
      3559.67944358
      9125.09391879
      -4140.59482127
      4071.37735390
      5566.95275911
      704.50103819
      3107.14971068
      2008.36295058
      1455.95653756
      6152.04435606
      1670.00865295
      6348.95044172
      2888.06248359
      623.75450432
      2070.57090188
      2137.82832827
      2334.87066781
      -4681.47608229
      -1451.42900697
      -100.46580351
      -439.33948980
      1008.70188486
      808.62598075
      -226.68091862
      1516.65719291
      3761.47445896
      10.05921823
      863.78719351
      810.61187795
      2824.59322931
      3403.53972194
      -2146.26437497
      -3126.08611296
      1321.04493179
      3200.00703128
      1230.08559229
      1097.42387544
      1374.18872961
      972.09155410
      -520.60188596
      428.83266446
      2500.25231926
      1331.64455339
      -530.35190057
      1229.14613309
      187.27927989
      3485.03967880
      -2652.83286126
      -881.36670413
      1771.37494081
      681.63225973
      -21336.21804100
      5498.08990233
      6346.18826936
      7075.30345074
      913.77076772
      995.54103345
      3715.81758456
      1868.39043624
      6883.03003679
      389.97592016
      332.87746203
      2930.50165011
      3516.87907098
      3717.83963566
      5072.55091174
      5302.65279406
      6466.27221171
      4800.54079243
      3205.88104605
      2795.80899482
      4310.58457041
      1959.62625633
      4405.55329621
      4751.59437751
      7837.96359898
      2446.53176084
      5089.02100067
      3515.21284131
      2012.30997594
      1974.28451135
      3805.96014491
      2184.14675766
      1690.36235567
      -2641.53762146
      2739.60654987
      -1702.81230927
      1961.54999238
      1379.68984399
      2181.56590698
      230.77094471
      2919.54539686
      -3392.26416431
      2436.47329694
      1200.71036156
      4311.28361059
      511.52294765
      296.89339689
      2052.79314068
      4594.70398065
      1524.10923401
      3013.76999630
      1997.45365378
      2841.03886788
      -1345.78879032
      -355.88088488
      600.18849990
      1893.51251366
      -337.71832902
      -1083.28880825
      2024.65518596
      830.38749807
      2822.60084343
      -1654.26238492
      -223.26950621
      -1402.32139463
      -1207.21660180
      13452.35863797
      5442.32783994
      2831.97723206
      2629.67177848
      1538.09392362
      8373.98526783
      5456.18404403
      1412.54524961
      3791.44041521
      177.30138077
      5327.15678902
      1619.60070502
      3021.02450894
      6526.66942957
      1991.39100392
      4132.25833637
      1212.38011960
      2524.65378523
      718.05445198
      1408.78443092
      3899.27465814
      -348.41294249
      816.20460113
      -442.08315424
      1092.97870304
      423.66606571
      141.03299572
      595.62519591
      -1900.46144884
      729.32860775
      1016.29632541
      2488.46485233
      1517.68781090
      2471.09314341
      1869.52824550
      3337.48938000
      2420.92564576
      145.02162796
      778.84425393
      1722.83052286
      2562.82321023
      2542.65879772
      130.94672078
      1028.82512391
      1652.26378376
      2130.25925876
      835.60209001
      -78.20579142
      2707.98048700
      1838.50518746
      361.48590093
      -1501.93316635
      2157.73694382
      475.81591570
      1458.67337499
      3937.61808174
      -1492.48656085
      614.77845629
      -232.11007606
      1586.98427933
      -3672.64765998
      3535.03951050
      482.77024910
      159.56946203
      533.43424337
      404.13166452
      -18378.22992136
      -3219.67594585
      6075.78536125
      2292.76551163
      886.69852425
      2335.40147025
      2649.85791684
      -1461.97901149
      2660.00109048
      3681.55871026
      2062.28273981
      3512.24231265
      1968.80928725
      -1525.43978445
      2609.62261655
      1129.74150997
      4435.47561523
      -3137.69017209
      7157.29082774
      4300.36535799
      1954.24457768
      1980.72918814
      3631.99318910
      1227.09631457
      2030.53467064
      839.68039582
      2223.68871253
      1787.83587466
      5274.91480388
      -356.58780807
      2281.37781790
      340.83269077
      825.16141659
      2506.98627211
      1890.11983310
      3498.08826527
      1991.86302028
      2299.29370547
      4191.29556994
      4459.44631534
      -660.64348967
      -256.09590117
      3548.20069863
      -2626.04126250
      667.61241481
      -994.85704239
      2521.86550889
      2572.35438540
      2751.70312593
      1537.17441624
      1451.20398272
      621.05965171
      -1315.93778574
      1850.13740308
      -1006.01774044
      -2757.25881024
      1779.31980632
      -2722.14893895
      284.63643700
      1548.15151949
      1839.80686649
      1796.75244694
      -608.32692091
      824.16835390
      786.18862795
      891.55578780
      7069.13679916
      3714.43556877
      11383.84905186
      7154.15316999
      11850.94564022
      3212.01989561
      854.99250778
      1071.56264556
      2248.77535356
      4324.03953573
      2709.77346866
      1153.63327401
      2638.74953044
      4944.09070416
      1312.48997081
      -690.55844030
      4353.22392041
      -97.20829960
      1386.98860068
      -91.62907407
      3622.33975181
      4434.71883304
      4641.08776667
      1722.06694684
      3676.17845943
      -2746.22345149
      1447.19288132
      4338.76901597
      -639.22708090
      3666.77133219
      632.38387158
      -1557.72526692
      -278.44726515
      6581.32761980
      -205.70768719
      1913.24508493
      1948.85881663
      -1278.80711602
      2109.70210224
      598.68348387
      1070.24637038
      1562.67200571
      4613.72516877
      3044.26712290
      1817.36010169
      1282.07693197
      639.25672267
      425.95077991
      2781.99566260
      779.23309962
      2390.95641575
      2922.54626616
      -1192.59709281
      -787.16680322
      911.88817771
      1856.38649045
      1074.51342847
      783.82101385
      395.68499537
      1908.22622202
      2033.87443788
      -503.22591149
      659.94716095
      178.71735794
      -203.89185215
      636.60966891
      -4184.82582858
      6558.66532732
      1549.07097847
      3524.00088662
      4824.37118536
      2252.71832411
      5010.58502564
      1787.62181224
      6104.72614979
      3548.38064245
      1267.15835165
      2071.33055334
      -1195.93078716
      -77.42640467
      2029.01022460
      -3264.56491138
      -750.25329450
      -71.71667155
      451.73785749
      1283.51847261
      -616.46034631
      800.80065865
      4008.19010894
      2876.15202823
      2079.62568355
      635.25045888
      -1603.47949708
      458.97233607
      3934.83002346
      7162.23160796
      2761.76160129
      2234.05594164
      1595.99094459
      2773.30241299
      2942.62867791
      3893.95751849
      3357.51232399
      -1398.30817509
      2374.45354177
      503.54008153
      2801.31733481
      2449.40543324
      -325.16291032
      873.11414547
      3278.27173822
      4038.74400460
      234.45453429
      -62.30990257
      1694.21232497
      -349.56153822
      -1243.25898857
      -1130.62805658
      323.97587531
      2595.18352970
      977.96103960
      1211.30015978
      1028.28804277
      -848.24462388
      608.34838498
      2471.81450674
      1513.25546501
      -868.79638710
      334.73490399
      -20.90677659
      297.98678892
      127.68281050
      -7886.36499036
      7995.46718550
      1663.02710480
      8609.13610489
      13053.38432370
      3308.95161736
      4595.03767106
      1126.99411677
      2740.90129174
      4750.98863786
      6495.04908819
      4277.45744430
      1615.10411518
      6286.12909134
      -127.28767923
      7236.00915873
      1559.16824435
      2854.04093532
      6074.84617936
      459.60092698
      -3476.02649647
      847.70589295
      1470.81795135
      1392.51069517
      7760.61458186
      -2013.82579566
      -330.22830903
      7594.42796808
      -285.54677571
      2202.57920119
      981.26201623
      -724.15651813
      3495.39525478
      2574.33859590
      -1368.52161661
      3713.86767321
      869.75153807
      2456.14469352
      1874.69379058
      1212.65034724
      -849.32870146
      2236.32126326
      743.23737603
      2441.68648403
      1527.53931498
      2349.27079015
      -2306.84127345
      3409.31715993
      732.22719131
      237.83481642
      981.78624679
      2092.30149699
      1304.80774083
      2865.64322678
      849.14840369
      1036.23066810
      2214.45269159
      1068.89021528
      690.13956402
      1214.21843943
      1358.10726645
      -1317.45329854
      -6.39452554
      -76.37570886
      -226.65253765
      173.38458330
      12913.53437348
      3955.36077984
      5359.80475837
      6146.45135822
      5266.38940045
      1946.19190182
      784.66960515
      4048.27575119
      3081.51973077
      4056.56853659
      5021.83515139
      -3283.53229729
      1521.56063664
      5902.68866262
      3769.15352250
      132.16713127
      806.56075322
      2572.36313883
      -1431.20934905
      69.16520932
      -2293.49508150
      2979.22939658
      1869.06836257
      1939.33707461
      2656.46254985
      1798.20768293
      1304.85522903
      1673.77867243
      -1693.92444119
      1508.10726624
      5569.39300857
      882.59527614
      1344.61790409
      2739.89196163
      1632.20079238
      4498.29490037
      2820.34692995
      1303.10315390
      4961.07066411
      1424.11875119
      2008.67168073
      -426.81081750
      1922.20661703
      430.75569044
      1687.63078013
      1520.45196089
      352.99072321
      1900.96716056
      -194.89098536
      -323.60228240
      971.40381364
      1398.84137818
      1146.29703712
      756.39271749
      311.55997004
      428.11893757
      51.88060819
      355.00368675
      234.10761408
      1077.70285742
      284.60028966
      334.31041871
      -113.56073108
      -724.81168769
      240.38429031
      -75.20584964
      -28338.34729544
      2451.58480851
      3477.61446748
      -2472.63231093
      4187.99155411
      1725.61200010
      7078.66700632
      5651.55841643
      -841.23507750
      5704.38127764
      2584.39848616
      6540.33427426
      10515.24390523
      5486.20992435
      1956.88985845
      1642.30261736
      5503.70649234
      4710.05375569
      1563.52609596
      4035.35774689
      11105.79443355
      309.14786326
      1010.49459289
      8650.74793122
      -6794.46397135
      -59.47251883
      12670.93405196
      3651.68658261
      15182.73536132
      5414.11532412
      16254.43300572
      14.00710197
      1593.60067528
      3283.98320711
      4757.60755895
      1388.01942651
      5572.65589759
      1379.00557087
      927.48975660
      4208.65627568
      -193.02691237
      798.93933799
      454.71409655
      2402.46928463
      928.25012779
      -528.09069472
      -2953.13299482
      3258.06548662
      2980.58678252
      1093.42998079
      980.47540260
      649.00285441
      393.40917948
      458.76480032
      1751.68695097
      881.42130193
      844.23012679
      1098.55237172
      -301.01815930
      511.85108235
      848.27907913
      299.52535637
      559.04884375
      708.27306398
      308.86442146
      -411.56248244
      3685.49948680
      1663.93787780
      4189.36747576
      6182.90913754
      4109.22075486
      1010.23651053
      2737.04349519
      1371.98698351
      3009.85445104
      13921.70450617
      4102.83760432
      5856.30826897
      2599.94098024
      2541.18967666
      4878.96679713
      4811.94902047
      1889.07911643
      4362.98589022
      5634.59939758
      3121.35905094
      3567.06869429
      1762.51569744
      2338.79511934
      7426.63877951
      1955.85618265
      5705.00924148
      13511.94888903
      7923.93495405
      6041.04647271
      3663.36902600
      3046.23467125
      3937.39284871
      6935.57788505
      -1136.14511971
      475.64434539
      9819.77146329
      79.00194275
      -3496.97276015
      5919.05409785
      7767.19362837
      2013.01904612
      -501.28112297
      4896.90919470
      3145.75547075
      -8112.44617721
      1064.24220022
      4901.66525948
      526.05390183
      1801.28218380
      -635.75947268
      361.09373801
      478.30250890
      3825.38352067
      1148.11664471
      1130.44364491
      1249.70753459
      -19.58115655
      1510.54087287
      1398.71783159
      1091.86958436
      -314.07653328
      251.62714142
      1444.32667045
      530.58452517
      257.38416479
      891.52151776
      3634.27002549
      3483.35462135
      2784.95564405
      5064.28643932
      3001.06344589
      5953.23490012
      6043.66891332
      938.01746611
      5530.01617494
      4612.98781084
      4219.43187971
      1488.82759792
      1883.47126449
      2882.30982160
      7664.33342692
      1437.50003811
      -100.11169161
      3340.69852748
      4978.12166227
      543.75811603
      714.79287065
      665.34259562
      3661.25158916
      3953.85241884
      8769.75491982
      10067.79677744
      3375.48462927
      6415.06190977
      9204.13570240
      407.49241289
      4918.68898964
      6602.42718118
      1075.96809931
      3953.90155532
      1392.33298843
      2954.91734801
      2005.83361852
      1579.81520859
      6301.48270207
      -881.27470564
      9791.94483811
      4619.26345999
      4497.07449249
      483.32067504
      2254.15021274
      712.88136075
      -2518.81001706
      4289.88386985
      11706.14179185
      4540.42354060
      563.80198117
      3425.31899324
      -1930.73558309
      1116.61793612
      378.74360300
      2907.63417969
      1075.73595660
      352.23186647
      264.59495083
      1362.94892849
      -102.02340775
      386.08153264
      463.23185110
      277.44160316
      384.86172027
      1301.69953946
      -30962.88851667
      5330.21691909
      3355.10599412
      6860.56116269
      4483.25172638
      3768.08476871
      2593.49268050
      2879.96676757
      5007.19949530
      7269.56285752
      5876.30339692
      4138.72062949
      7243.96989435
      1109.82717189
      1070.72587953
      2614.80935062
      5964.07158585
      3297.29704763
      2669.35528785
      3140.93395933
      1936.91815035
      1401.39977504
      4821.69761075
      1939.66161553
      1782.06034780
      2954.45282665
      7779.27987988
      3025.43144244
      4505.09848340
      651.57995456
      731.10795708
      4297.50995079
      924.57174312
      6499.52051112
      2475.26281719
      3352.59846879
      -174.91825295
      -1376.23167661
      -363.54300025
      925.65537807
      9579.83686278
      -1556.70918344
      -2626.35025579
      -4440.64159144
      -3973.62886341
      10056.53705540
      367.54518539
      2007.65526393
      -3.41437766
      -3305.06001879
      2808.95430900
      -1226.02121756
      -2133.54921068
      2321.94209694
      3507.49278839
      298.60528144
      91.21222351
      -684.85667221
      -1576.86220885
      4058.48853397
      -1442.87356330
      199.78429194
      603.64859647
      -1081.95645815
      107.16486605
      168.04087665
      -19317.15986296
      7045.74999409
      3899.36692990
      -6025.89862725
      1641.35176316
      8338.18584731
      3799.18375241
      4152.20123612
      6238.12720259
      3623.77520820
      3664.65737558
      8864.45171325
      3017.79164478
      10088.28079081
      4167.40785286
      4162.11052813
      3669.06323586
      -509.49436785
      1433.76616778
      1787.48031078
      3143.00555166
      4896.76811609
      1183.37102147
      3949.91117255
      2896.64941026
      -2672.00583305
      1333.40940080
      1770.31412142
      4876.17786348
      3162.67242393
      2418.68951099
      4630.75323006
      8901.43983898
      6175.97090621
      6220.25253308
      -2577.15259165
      -914.71164486
      -1369.63261844
      6639.02879682
      8752.09777194
      -809.32584920
      -1767.96721351
      400.31849289
      387.51702659
      -584.52322021
      3121.08185004
      1019.94746444
      232.35006206
      75.20209862
      -74.11998749
      662.19815703
      -3492.47353744
      7773.45802839
      2958.18259123
      1693.15820488
      2279.42626207
      1742.44336437
      4357.82602331
      1306.97565062
      1543.34944659
      2740.32884487
      1379.64497869
      1509.86161407
      -308.91010097
      -333.77909977
      699.55296362
      3211.75720808
      11305.88374519
      3945.69839243
      2162.05420524
      3746.99585606
      2710.01707155
      3897.02871838
      6710.47407704
      12846.18217954
      6072.81916957
      5002.34777894
      12340.54801409
      4066.98303923
      6017.81142328
      -377.31429660
      4125.79673503
      7305.34339946
      2091.14387098
      1444.86544066
      1663.23600675
      -454.51767481
      1469.82763743
      1392.77932276
      2138.33452895
      1511.67727386
      7143.48302931
      3484.59736671
      4235.90990519
      7955.00802269
      3542.71036022
      -3523.73506911
      1746.32489337
      1463.90488755
      2440.15710241
      3118.00012420
      -187.95857878
      -656.40657433
      65.79013969
      -2996.69948516
      -2944.31576684
      -1067.14170926
      4659.93898930
      -192.41656801
      8999.92461829
      321.25866420
      260.97073271
      -4996.19742697
      81.22864998
      2217.87105385
      5697.83243100
      2847.33166601
      4100.37954888
      -3243.21579864
      677.61400966
      676.94176497
      1551.00237540
      722.75366076
      2129.22997317
      5544.18924752
      6339.53257707
      1537.52220414
      5258.75589360
      3600.42180052
      1704.60251416
      1598.31289534
      65.14391912
      7457.12409389
      1389.23101972
      1223.36134166
      1357.55904363
      825.68972848
      2326.74303836
      6520.75747922
      9396.38045247
      4354.40968574
      7704.29136699
      4761.83617143
      4989.81158745
      3042.79899145
      1217.31799620
      756.66906254
      2468.05115525
      551.46765116
      7678.20370202
      1753.70542646
      -663.14920477
      1595.50168780
      3000.50200846
      -2745.66283985
      7141.81940359
      7197.38411571
      1376.63327747
      -1429.04235027
      3610.19053482
      2032.35628142
      5189.35538576
      3581.45140022
      8145.22704043
      2514.87009524
      1461.58720180
      2448.14942018
      3639.67588632
      3588.38225521
      1919.32307898
      6646.30327848
      2507.15354613
      -7262.90756977
      2248.01975319
      4157.74950443
      1247.89076915
      711.49582509
      331.80405322
      -1617.09081535
      4010.92941514
      2175.41003865
      682.31024019
      1224.23596654
      4787.82829839
      232.51354998
      4318.67608463
      2276.46133182
      7964.71677515
      472.43621273
      1095.85567952
      1981.51534770
      2688.38108485
      3253.04650021
      6769.29092718
      2548.42375661
      -4659.77923933
      18402.98184452
      -1307.53077441
      -40161.08078057
      3403.08573399
      5377.97458092
      3176.80155547
      7161.94329270
      5300.17147120
      12186.38151843
      1981.07000948
      3522.12485605
      1440.61966929
      2049.50903790
      1947.72811970
      3016.25544422
      7822.32063817
      3784.15476002
      4059.96304919
      11594.36881382
      4897.22382214
      5249.74997700
      3064.93232659
      7965.44142489
      -1639.83257047
      6315.12297085
      -1625.89704093
      3820.70184128
      -2953.14750050
      -32.81451964
      4614.07946055
      7277.75830533
      816.23813070
      2720.06429895
      3264.96263541
      -1509.18629147
      1715.93471419
      6961.58016386
      1333.43152476
      1269.50988834
      3250.70712867
      2076.81309275
      1238.67321769
      -14.99290521
      3663.38957042