<?xml version="1.0"?>
<VTKFile type= "UnstructuredGrid"  version= "0.1"  byte_order= "BigEndian">
<UnstructuredGrid>
<Piece NumberOfPoints="5123" NumberOfCells="5123">
<PointData Scalars="Pressure" Vectors="Velocity">
<DataArray type="Float32" Name="Pressures" format="ascii">
      1956.35695589
      -17933.09841940
      -21217.00665611
      -25493.28008765
      -24261.99582305
      -28560.32273856
      -29272.80775739
      6857.53497586
      2742.39003937
      -23569.16128140
      9637.23188237
      -22140.43487678
      6698.41463948
      1356.57060802
      -20993.64946475
      5797.30458020
      2019.74112255
      -27025.94562458
      1356.58027943
      1809.15694053
      3496.53288930
      -1219.98457180
      -1112.71679865
      -1232.79400427
      -179.31492767
      -2257.84384677
      1870.05633705
      -3725.44894829
      -2068.31454603
      8265.01342920
      -1729.47999166
      1033.06852028
      -2026.67960675
      -164.30101985
      -2961.25499795
      -423.72799685
      -1856.49625778
      -150.98647721
      -1425.36988575
      464.06019787
      -1947.72525762
      1007.42999624
      -673.43714165
      -3272.27635268
      -2406.86840747
      1455.38491748
      903.78283601
      1235.57922918
      515.88749517
      589.34193513
      1847.29090094
      -1119.91061901
      -547.21137072
      1006.84844348
      1052.45479341
      567.26681876
      587.35207576
      741.13255784
      315.89458122
      360.97504553
      463.07340637
      -268.31562797
      931.01427494
      1338.00138421
      382.62416049
      1306.00345694
      11998.70347099
      9675.57048309
      911.67602183
      3743.94817224
      -113.09835906
      1849.94451800
      3863.44802936
      10001.24454930
      11295.75438522
      736.54360248
      1556.98948279
      1868.19720697
      1653.95463202
      -81.81631207
      1862.67349626
      1155.73773701
      3855.42539341
      -414.81775915
      1786.19904131
      -96.04003046
      3391.08831395
      131.18216308
      1233.54065181
      1446.13363115
      4085.86682536
      -3978.20724587
      1898.91817325
      949.29964682
      886.28958060
      1214.87920554
      1109.69822769
      2.22467610
      -1116.92629727
      609.45773937
      -1557.42844942
      -2937.48839197
      6551.56068850
      2028.26622926
      2298.44283758
      1777.50005916
      -615.45298183
      684.29774424
      -764.61715200
      -1387.78723479
      243.67212886
      6143.07262822
      -4462.22763717
      2619.63365559
      -3438.47352098
      3468.09139706
      3180.52996140
      -375.69204132
      441.94546523
      1461.61070672
      4426.03749504
      -1869.16491955
      593.81349243
      -610.77520048
      -503.32089941
      -6.34820190
      1612.80218924
      572.79649059
      450.36301754
      -219.20946925
      -74.73205488
      1308.65956218
      -24148.52814249
      1398.53330105
      -914.82910953
      -597.80832581
      553.99864905
      6664.16476840
      8830.53639499
      2935.00221518
      5616.19427816
      2931.33998861
      7502.79795491
      4314.57133199
      2561.03408367
      1259.19674966
      4582.80499905
      -427.99730869
      1246.36968287
      3752.93988173
      8449.80825119
      4127.03841676
      2577.88167255
      2291.87261382
      3292.17281648
      2010.52909354
      2802.78092910
      1438.05300289
      -722.64450824
      -3319.13670584
      2093.24302235
      2306.54661040
      -1317.65959105
      1251.92292420
      4815.30698305
      2299.56915704
      1768.46124915
      2305.52558723
      849.83528735
      786.95202367
      -1556.90978696
      3697.58202368
      3344.18449694
      1352.21446484
      2091.99781946
      7813.48560845
      -912.36847987
      2218.46416010
      -1886.48813124
      -2444.12480903
      -3823.54804174
      2565.09133952
      -2505.74528078
      -351.20057248
      2665.64193577
      352.37069026
      419.48916315
      -719.84933119
      2290.99018055
      -2503.73417017
      4810.91239589
      -2534.60095998
      718.49310843
      -358.48120456
      537.70494195
      -185.68822853
      767.60585342
      1226.08697094
      -18716.99888393
      2578.11232758
      2313.93180907
      4829.47871860
      2971.26396232
      4394.07558765
      2823.83661695
      4324.56582583
      2327.69530305
      1366.83564042
      2743.04449744
      2259.41395840
      6814.20189501
      2889.64729383
      6360.56419006
      -329.19500840
      4077.02904723
      9155.17747285
      2216.51453646
      7003.72771503
      797.58708426
      1909.02848295
      3448.02241303
      4843.11443995
      2338.15896293
      2428.33460597
      2592.26371593
      3273.89227796
      374.52039292
      4010.48559273
      1743.51744372
      4403.50868966
      7480.32321474
      -2275.69109459
      7890.40955075
      4728.65277739
      3136.29845883
      3849.98842359
      2650.08586536
      17.28400537
      1829.52731008
      -7841.70502601
      5160.15623577
      -2018.97844166
      4869.10143365
      3477.34288800
      608.01647748
      3132.29294232
      -197.43559854
      2224.42431409
      3755.46031581
      -3277.73060480
      306.67857689
      4639.10528788
      541.07363838
      6378.39006218
      1528.29157486
      1200.99566243
      -704.97546461
      -291.94146151
      296.70965684
      2149.66692541
      3183.16233687
      -959.26932076
      -786.94685311
      2045.67126544
      -27399.67254656
      12924.98283839
      7353.10123078
      10545.87409606
      7159.39719618
      10033.54406314
      3746.10053527
      1418.87285699
      4490.35397282
      4131.62030116
      611.86415554
      316.49044893
      4017.23542858
      4550.15388295
      8106.99149521
      3245.05930896
      809.93079863
      5327.53290462
      3144.44081760
      11255.97274793
      1062.51285209
      2584.07923294
      5871.92018609
      687.46998358
      869.00698822
      7848.20057634
      1951.26925384
      2074.97625920
      5092.60966743
      -366.23138156
      3687.57139863
      9456.39050144
      -1472.11901049
      1398.29838818
      5381.89275330
      8337.94774648
      4516.82593221
      1474.57698152
      4858.99110294
      1921.13237249
      4637.26943036
      7402.83978529
      -1204.39231139
      4488.75726527
      3521.35297922
      4870.02036743
      4215.64011752
      2157.82851786
      2005.31480522
      3784.40475794
      640.92168004
      239.41214763
      -1134.47509807
      -1552.20588658
      771.31499680
      3705.61664934
      1765.02623398
      3745.41269782
      1954.82145389
      3064.93953172
      739.75874670
      461.43277974
      5127.96646467
      -2816.80716740
      -2293.85841411
      811.11928349
      -20980.90566408
      5134.70858312
      9843.25660493
      8081.76895782
      9870.68633744
      11086.47321445
      7896.12013129
      11379.80252122
      5623.73252830
      4721.14517519
      975.40984087
      875.29611463
      -1202.51489355
      12039.79366584
      2077.78653836
      670.75229253
      2865.86613359
      8684.20451375
      4502.35291647
      12414.06020881
      1521.44591515
      2560.28056201
      4066.17020277
      1183.06267165
      4010.00094821
      9599.10755992
      361.11098322
      6770.48370188
      7377.87525723
      5799.09343859
      4847.15371344
      508.26450723
      2084.30009885
      1127.99167437
      4558.54668722
      5593.37074758
      8645.01108886
      2931.08641146
      5931.86110216
      2377.67481646
      5316.61281942
      1345.77199549
      3667.65310928
      3612.25466363
      2945.28071309
      2473.49384371
      1621.64161397
      1833.77908885
      1621.77409260
      -891.60785022
      1199.49081781
      6517.56035444
      9086.03429725
      -2911.57408200
      282.63511971
      1276.09952404
      1133.63472937
      2820.67231652
      2548.86493342
      3484.87880707
      637.60707151
      1846.95320908
      3510.82774325
      -426.73734056
      98.74230956
      464.06919464
      15473.42819228
      6424.78854469
      5392.23023317
      7571.56739879
      3766.79335473
      5081.08521442
      5250.20595229
      5554.65716690
      9271.69098554
      8118.69146168
      6279.20344684
      4099.98260079
      1016.19260842
      6123.33056855
      2170.59596349
      2663.59592327
      4075.30068878
      4083.41895810
      5159.46660300
      6961.46548761
      1717.50029265
      5667.36532531
      3911.23399739
      12333.04462142
      7505.58439443
      3156.05704988
      3383.59087621
      1413.37664267
      2757.28536212
      3768.36350602
      1916.86634525
      5303.10779785
      2266.89502026
      2838.17811371
      6706.97930085
      501.57258905
      5406.13122788
      2294.47901634
      9837.89164695
      -1068.38514362
      5484.97297651
      5254.06484334
      4496.08036257
      3854.41395848
      262.87381280
      2519.23903436
      3612.51534981
      175.96673941
      5205.44499458
      6509.32048559
      4030.87058404
      556.30360151
      2695.60165552
      2437.29480349
      3830.57938409
      1512.76669174
      -774.56166103
      316.91677968
      1141.85768665
      4408.44893355
      -1640.76426196
      1084.93362733
      2879.97289477
      2021.08134410
      -1617.31938360
      -1149.76415404
      17813.86340317
      6320.53022858
      4936.88529656
      26386.57830153
      4385.72964423
      16901.45471784
      4054.80018731
      4619.27995143
      4341.17493010
      5422.33058098
      6990.35160968
      7108.79529472
      3325.11361689
      3446.45896902
      3766.12187370
      7487.77759757
      4187.15755874
      3980.57954673
      1654.44555588
      13882.39950788
      1338.60455558
      7801.34903475
      -1887.89803809
      2037.23135848
      5088.14663183
      -25.92534580
      541.10856468
      2652.27728777
      3532.25053172
      6388.75261334
      3994.94835810
      2554.31020935
      6374.20230861
      4553.22467441
      3319.99114629
      5738.68154021
      -3450.08479481
      211.09711637
      4612.31050059
      5184.76110525
      3640.46323449
      775.77466701
      -894.28940198
      7786.06104150
      5705.72286031
      2805.23241003
      3053.41123304
      -3038.79502563
      6672.66450531
      1582.33973558
      -1217.70086779
      884.42316333
      1196.46191453
      1184.67578495
      2356.76397685
      1100.72868898
      2827.52462056
      4358.83515877
      2627.99515257
      2281.70412058
      107.70783137
      -508.68746127
      2109.77094921
      2135.50093264
      -482.86798444
      1297.13700187
      -21336.21804100
      8396.11740028
      11531.82506189
      6430.85576810
      7426.01536093
      4645.44532456
      1862.06363017
      5866.49415818
      7714.47993694
      5808.16192958
      7873.88094603
      777.31270128
      3841.12178870
      4387.68109404
      707.16155282
      6207.46865231
      8356.52518666
      4926.94837362
      2361.49402429
      -696.09213243
      7467.63594449
      -13.81432323
      5841.71152884
      5160.70178219
      1325.78898970
      6440.51388775
      2275.10278789
      1121.99052967
      285.92935674
      5252.25043290
      2365.97273896
      5230.98166379
      3640.40041049
      4649.90705619
      2818.14136043
      747.14530017
      4932.66983730
      -996.78083606
      -1566.24792820
      4638.70403199
      9440.30590259
      3273.76762467
      6518.36423520
      2804.41032303
      6090.78661668
      3226.21304162
      1934.63428349
      -36.99059865
      5728.77608813
      1677.22104115
      2973.91016902
      -395.69154772
      2456.94503103
      943.65844711
      3077.45819733
      2660.05316271
      2000.02683587
      1046.47942140
      3673.68163614
      1408.29956607
      957.85464766
      -939.96795026
      3282.02982230
      2024.33689719
      1448.43951153
      578.02111321
      17836.11455091
      18437.62675563
      16423.21076371
      9727.32600601
      4531.62210403
      8250.69197352
      2597.20917937
      4588.14753132
      3859.87299780
      2855.94977129
      10438.69421054
      8021.78673360
      2829.68968746
      3910.64031870
      4093.98316727
      3922.40672601
      7096.34201183
      3842.39790815
      7642.27818501
      3843.19510268
      3231.44254663
      -656.66583137
      6683.00357809
      5037.47717930
      3653.22621156
      3282.24772995
      5746.38004789
      -1133.54594881
      6179.46902920
      3001.93912905
      4109.86119115
      6639.05877711
      3727.88727526
      6051.54834928
      2206.77756378
      -1827.62228230
      -1652.43237007
      4029.68703784
      8773.26790301
      3761.94349712
      2676.32437405
      3651.50485241
      2894.12058219
      2634.88029754
      -668.60141954
      2755.68540269
      5219.36582276
      5381.07175422
      6089.75078002
      -253.45589476
      -1343.18654766
      4522.93612308
      1582.33980848
      5083.55638201
      1765.60027719
      544.69293016
      1288.68529839
      1546.38223173
      351.68512588
      2451.12244284
      -1975.22225593
      1200.94661401
      2842.15130720
      233.21806761
      -273.45024353
      25.34989111
      -18378.22992136
      -2164.83913192
      2456.56129321
      2370.15164630
      2208.26983535
      6869.35046415
      17105.75469696
      628.40201821
      5054.84795640
      5791.00039586
      -404.14966474
      4465.11434968
      2244.80141123
      5211.17209853
      2155.44903713
      4574.10433378
      8249.63408909
      2238.68125254
      697.65985160
      8000.42479000
      -402.88113219
      390.66544810
      1716.77576165
      6497.13536870
      6594.06943136
      2433.15423600
      5687.31925940
      3730.55354250
      9736.91814651
      -996.85302444
      2046.92864258
      6094.65010752
      1868.91415778
      3325.91499087
      2504.31909737
      2601.22905824
      5488.49784588
      1369.83381377
      -1920.58267834
      2491.42101190
      -486.07716441
      4647.59719558
      2323.23844984
      -404.08386682
      4944.33962989
      2835.99265879
      1281.25520696
      -400.37721250
      630.30313609
      -313.39722234
      5049.73215805
      1078.58763787
      288.91880556
      912.45106447
      566.65471081
      5774.45425103
      -3303.65790602
      3095.30693757
      4028.07512129
      1178.15621739
      314.96536151
      -160.55201691
      2722.16938634
      -737.24891756
      781.09203377
      715.24006694
      13195.55583156
      6194.91264873
      5738.07665654
      4448.08801392
      2678.45562675
      6267.89358219
      1383.35084583
      4748.56415182
      7990.50006968
      2411.42124021
      10242.19167758
      3125.01018588
      -3262.40289428
      2593.58501039
      6226.57620094
      4964.33015276
      6822.76388136
      5770.56267328
      8449.35844133
      5995.45205889
      2145.44976652
      2210.84148418
      3482.02362585
      -2412.00027165
      3685.29454159
      1521.03518248
      1355.71465426
      4521.10291635
      -2096.96381501
      4052.56258228
      3798.89632649
      5982.68793021
      4353.57315933
      -815.16550640
      1317.61905031
      2728.46270170
      4347.87476113
      1309.40841532
      5236.93466829
      4200.70182042
      2149.17541378
      4708.28388503
      141.99635352
      4137.79345013
      3600.80075667
      2811.74879323
      1837.50785020
      2745.34380105
      4873.75580236
      968.71764891
      -733.97194257
      3460.41551305
      2767.76217889
      1915.29145681
      949.39621618
      1965.09782796
      2205.39351999
      397.98408602
      2158.53090375
      983.85966614
      686.73736571
      1435.38426377
      2782.31368863
      -625.94331833
      -739.03031499
      -321.71261970
      15801.25485166
      6149.08870058
      7226.95977919
      4647.40357839
      5100.85452176
      5741.71974558
      7511.56714911
      2180.72327259
      -2365.63155584
      2728.58771840
      10875.51188157
      2914.46073119
      5031.18067240
      10019.28038039
      -5500.94729463
      4548.29802793
      1900.23595665
      4537.34087991
      3757.13533380
      -1572.63261810
      2170.40748405
      905.76291213
      4709.47636336
      7231.70152956
      2739.30213846
      6464.76908134
      4960.41920249
      1573.67890825
      480.16309486
      -3478.11911349
      8831.17921347
      3173.98173884
      897.33173705
      -1627.91669525
      6310.14542624
      3995.35232296
      2321.99474089
      -1475.50080974
      240.25859615
      2484.38487439
      118.97889474
      4816.22613367
      976.89666941
      2117.39725726
      4173.37243265
      5143.61850884
      4485.77498949
      4420.78684897
      3193.57813854
      -5.13581777
      -354.85239362
      2422.78055544
      1900.98287022
      3964.49719413
      1402.14151461
      1779.08864064
      2292.44713864
      2604.14352975
      601.13791557
      1460.77845853
      431.52657100
      852.26842755
      1621.58141598
      -1598.51957494
      784.56317977
      772.23311755
      -6640.41953982
      2994.60132049
      5319.28111082
      2546.87073451
      6936.81490409
      4427.96593646
      3945.56670908
      1959.29017871
      -9457.92196312
      3459.96002471
      10071.70317943
      955.41676360
      -368.94811315
      2426.63985022
      3054.37305574
      -1024.37312608
      268.42246174
      2124.52784493
      1159.10161797
      3397.32509207
      -8.21232555
      -2965.25223941
      7282.95621862
      1321.64732173
      -494.44728011
      1011.72239969
      -4242.91187411
      7460.03145594
      6479.15158835
      4150.88292569
      3850.45079849
      2444.37367801
      1199.53194026
      1382.64197085
      535.19067208
      2396.56189359
      3615.96382368
      3055.49910467
      3387.13958429
      3237.71071445
      3086.49504583
      690.71265215
      4304.26831956
      873.05000974
      4438.74371288
      -1196.77725432
      2064.05155670
      2159.73126289
      1181.27189008
      929.82614082
      214.20978808
      3998.77458473
      5907.20060645
      2996.32184503
      1317.83137537
      54.45511177
      -121.07525036
      2085.49176599
      466.30439289
      1169.99607601
      -452.54565985
      -784.39184802
      -536.11103980
      -64.40052632
      355.28527080
      7.22773221
      9608.67750556
      8990.03955591
      8050.43993063
      1489.91301798
      2406.38935059
      2354.62570092
      4466.75506043
      1486.26721072
      16115.74031643
      -1419.88671713
      2126.21763509
      5352.59038921
      -1819.81573426
      588.42621382
      5764.64622393
      -1594.71690195
      569.31803226
      2337.20187454
      10256.94939289
      1268.90337901
      16.70024242
      -113.04853742
      723.35844407
      693.44560820
      7279.18649485
      5266.00638161
      652.56235621
      510.46655426
      2740.03290150
      3754.33947691
      1619.46977492
      2871.52267197
      3343.94462788
      3044.29650536
      3382.11469381
      -2548.16464430
      -284.71573112
      1673.02749831
      1996.23022380
      1610.09933805
      3103.68788689
      4835.76094895
      1232.64485111
      1798.07569606
      309.56392972
      2324.33300855
      2319.93006481
      1382.71107015
      907.34243284
      1647.36090278
      1399.21875268
      2863.84730297
      1590.20293911
      940.15490937
      1574.73186886
      -805.09849981
      2016.57125049
      2965.98924078
      1209.11964777
      1121.51072691
      843.48578025
      1365.12265779
      -502.15841919
      -416.14079735
      787.24875806
      241.46004432
      -28338.34729544
      7011.43467368
      4616.77129411
      4823.69175767
      -1248.82248847
      9522.17724219
      2148.64952274
      1268.73013696
      2127.18925589
      -4414.35271570
      1462.74120392
      192.30744822
      5871.86654479
      2299.27043513
      4708.01070749
      -2490.87045080
      2677.05858464
      -767.99592541
      -358.87019921
      26.20638955
      -410.94123686
      1707.77628348
      3643.98665419
      1051.00236731
      -3576.69572434
      4727.70914142
      2540.09238373
      7503.92215292
      2289.50093635
      4169.49524161
      -1058.33587569
      10092.25677358
      2313.98370650
      -2790.74116390
      2079.56324080
      2598.69584332
      1021.33813684
      7560.22333684
      -674.55362560
      -431.57007975
      1432.22629044
      2961.36072805
      -458.37445644
      5939.96847186
      2944.91383651
      2400.07463985
      1284.65822663
      -1153.37749719
      -2874.08581664
      493.82723522
      1596.25684851
      234.67980145
      697.83691859
      1577.46798337
      3154.47595168
      333.39809356
      377.41095522
      1566.48431935
      265.13616191
      2411.54679915
      3674.88983892
      2402.72030113
      1087.11440517
      552.15591714
      -92.87478410
      416.24223754
      5201.05012778
      1769.13155820
      2725.75490984
      5663.67003641
      7250.31084763
      4512.07226054
      11090.99948992
      48.51384240
      2908.34609152
      6768.15851870
      1846.72486305
      283.89880024
      3746.70708741
      757.99426545
      7913.29450229
      -606.92802968
      2191.29554935
      3247.62401367
      -538.18092826
      2443.49339873
      6850.24465184
      5710.79360428
      4948.06332962
      7515.61416843
      -6017.16876277
      605.73498535
      12365.41603720
      13123.14417850
      -6945.59410337
      1063.54824683
      6675.71771057
      2882.10878757
      3787.80115988
      -1294.46193907
      5435.31222593
      1216.80126086
      1383.98031949
      -449.56228583
      2608.80418860
      3163.57645157
      1839.79217316
      3829.62560753
      508.85727932
      2002.86910886
      6470.50382385
      2631.58530965
      1165.06118719
      2211.82682104
      1174.12481785
      -242.56827510
      108.40148417
      482.30968287
      1078.93646170
      1258.60762682
      1525.89345137
      -145.27799566
      2889.69252176
      608.23748508
      -1996.80532563
      -1236.33998169
      1072.54286059
      621.52326779
      -2029.80173526
      -1246.04982277
      -993.46176650
      -578.79042240
      11296.54250747
      6887.29126825
      2985.03661357
      4209.60193287
      269.58549019
      3182.05605563
      2252.24116372
      -3735.98129227
      -2138.68252871
      4342.54915074
      2443.77619912
      1124.69822284
      3891.46866577
      -130.20923754
      6182.27159440
      -2493.41784070
      41.21204070
      1778.50336884
      2943.42861438
      -672.42682742
      1558.81734883
      -169.24638508
      1254.98797368
      4116.69838790
      6770.80389083
      4551.31060392
      5977.53539823
      929.26443862
      1613.26623702
      3928.20720356
      2192.45371944
      1036.06820271
      1178.94376538
      832.09028499
      8631.22427214
      4307.44792576
      3564.30902584
      -1696.80704426
      -3731.06211051
      756.69999133
      692.41244475
      1977.91145382
      2722.16545828
      3494.12026216
      4303.37085011
      1819.06408621
      730.23980337
      696.17477118
      3047.94833649
      1713.12284776
      1661.54827777
      1632.80657098
      2890.01570810
      1966.36542169
      2659.64679661
      922.55628575
      2425.19061283
      132.99262701
      -1652.18570973
      -25.13964921
      4344.92753803
      2424.64823504
      -894.38508894
      -1678.22645814
      749.22858103
      -1256.99564481
      -30962.88851667
      5238.92693191
      6637.75802486
      4921.90281716
      -1580.98632940
      4412.62008431
      1644.36992434
      -262.65318190
      410.05271466
      1885.27567991
      447.54619375
      3135.38324494
      995.61307046
      1883.49213827
      5581.78875658
      6663.74098868
      3584.09980178
      6210.90551824
      -4917.47681256
      -1577.53367134
      1804.81692709
      6819.12947419
      -600.99765019
      -2410.92760121
      2122.03732589
      8023.31780395
      1854.92964862
      3904.94283804
      3800.25591798
      566.19383638
      3201.38044009
      3665.55420174
      -564.28735676
      829.59753750
      928.98156970
      -16.70360599
      -79.91153088
      -839.65241437
      1585.25893670
      1593.64253541
      -951.67170972
      3193.51401996
      -746.36290716
      1216.19512330
      1875.81231799
      568.73533987
      3055.76631512
      2291.17524189
      -428.85309931
      1707.67972482
      693.38289256
      -538.18296584
      -286.72654221
      -316.06879055
      2189.47966602
      1125.47413306
      841.21665954
      -1058.37273005
      1096.86260525
      605.15581100
      1670.71241744
      -1754.60977378
      -1258.32327792
      -45.19849739
      386.01751558
      -66.46173015
      -19317.15986296
      13028.40969293
      5850.11796490
      5760.25230698
      1710.02605748
      8739.25964144
      6677.97489120
      995.91687974
      291.78121172
      -756.33335988
      3689.11948803
      3106.61298814
      5436.44555694
      649.68194637
      2472.83411129
      5402.60127324
      -8951.20114862
      3267.45688847
      5163.27800720
      11221.06404450
      3139.10553292
      10603.47246016
      5189.43423525
      4042.66643303
      1356.65588222
      -890.70407987
      3067.62337518
      4155.75776852
      2207.98171977
      330.12007283
      2570.26048358
      1626.86543383
      1128.16200687
      3442.84637896
      2942.50816355
      483.10622211
      1285.01543539
      2166.68567912
      1454.16104083
      2494.60496001
      1545.00367553
      2537.04602826
      1147.98184046
      -267.71539973
      1862.91157570
      1542.05176985
      -752.85453944
      629.54142613
      -952.43441178
      1359.78470474
      2729.22083449
      4785.66434305
      2885.68873622
      1250.18360720
      2943.40615371
      224.76637938
      997.72193115
      366.80042810
      541.56364833
      228.91910754
      1775.55546556
      -1176.27865637
      -1249.33004036
      -15.22521836
      25.26165805
      203.99524273
      18914.19659845
      6107.96124075
      3320.98962004
      9036.51634061
      3195.53867586
      4673.25749718
      4405.42370413
      1893.48130847
      1407.21508546
      -3164.86207162
      2399.49459846
      2300.82279890
      4294.94132419
      3597.68986932
      5284.53458288
      -4628.28551564
      7349.32452583
      1739.35930793
      8573.38403360
      5676.60792979
      26.28293854
      14490.42388139
      -504.12848190
      3247.38285828
      4104.55620520
      -219.82523717
      2953.48555161
      8886.08777860
      4365.64169623
      7823.65575663
      -3812.44999144
      8209.66561371
      3980.92269712
      5843.62324566
      -6875.94879415
      -1577.26882799
      -1089.31837937
      4111.56932323
      4700.09030558
      -708.07590573
      4855.71739825
      -275.78051389
      925.28071016
      -918.70953116
      2184.29248718
      737.30567882
      2131.72121961
      820.55709057
      1594.66287036
      573.84098552
      693.98384362
      2135.12299492
      -244.57678593
      2390.92125985
      -158.61146023
      1226.88826398
      868.69981519
      -592.34610765
      -209.80415831
      363.13618633
      969.53533056
      -568.92729844
      -255.80596247
      728.85892440
      301.85159336
      808.36427004
      5605.80116287
      7253.00883721
      6625.76876970
      16493.11551958
      1489.07764195
      6442.32026923
      2984.17898583
      630.06945614
      2419.52701708
      3494.20790540
      7565.51564865
      1373.45582635
      7876.20186727
      4547.44900006
      2431.06555440
      7840.38199283
      23514.73255084
      11019.87943949
      7014.97101279
      2466.32101575
      6352.91189318
      9312.17422826
      12844.74699691
      5185.63235608
      9961.92874823
      8677.59730175
      4555.21551370
      6265.97336109
      5950.78306678
      5980.36861635
      13829.04656915
      -495.10262277
      7224.81932013
      -1070.29339041
      7333.45564518
      -8095.12137539
      1040.02164865
      4100.40233083
      1211.74937128
      1250.20967523
      7666.09896278
      -1167.42657305
      -2958.94847691
      2068.32581365
      -14.80899830
      948.01575844
      707.49342857
      954.76874695
      1562.26452409
      1626.97424786
      881.55987432
      -2392.93478057
      876.54146172
      170.05721865
      -1058.88859779
      2248.20604192
      846.58280883
      934.21393554
      460.78800704
      1215.70442838
      1048.93214953
      -466.23414033
      -564.87402900
      -405.41916128
      -176.45426446
      176.54784918
      -40161.08078057
      8029.40601643
      6394.08244651
      8962.17807752
      6377.12756392
      4400.42713078
      10816.64550543
      2675.73603253
      3871.78731454
      8509.96157011
      1750.17892645
      10719.96141084
      2697.06337636
      670.33672426
      5142.05286280
      8292.10627511
      6238.70500780
      2190.08505840
      -3305.29867731
      11426.63947582
      1759.60363565
      6057.24798587
      4117.81109062
      -1992.03575884
      5634.52697168
      10843.61631038
      -7388.34919090
      5623.60937429
      698.04610400
      3990.31823450
      5088.54775688
      -337.74744731
      2566.89296960
      21433.74770752
      -1393.67865375