<?xml version="1.0"?>
<VTKFile type= "UnstructuredGrid"  version= "0.1"  byte_order= "BigEndian">
<UnstructuredGrid>
<Piece NumberOfPoints="5123" NumberOfCells="5123">
<PointData Scalars="Pressure" Vectors="Velocity">
<DataArray type="Float32" Name="Pressures" format="ascii">
      591.08306794
      -14453.04510257
      -21253.17475586
      -25493.28008765
      -24261.99582305
      -28560.32273856
      -29272.80775739
      180.12124005
      -106.59819275
      -23569.16128140
      373.11958667
      -22140.43487678
      742.48879563
      464.13093204
      -20993.64946475
      574.28793972
      822.17211753
      -27025.94562458
      1074.17909947
      1862.62647765
      355.27847383
      -650.68111131
      -1051.90128980
      1810.63219522
      883.99371791
      1232.76718840
      895.73295130
      2333.00525356
      380.84150311
      355.85639679
      296.06469943
      327.70157055
      1260.09948620
      844.43956435
      -253.21297403
      1245.31520762
      -504.79307986
      676.49079738
      -651.73525457
      705.81806318
      -170.30092251
      2131.13606602
      -654.56064413
      -1675.47107418
      258.76714031
      -29.37990672
      -1212.16702642
      11889.19572387
      5022.84294149
      -3185.81196479
      -3558.72136281
      2042.36469055
      1573.62693830
      -430.17191743
      -245.76695265
      5198.65696546
      2521.16421328
      -5755.20621055
      -649.79383938
      5870.70161290
      -5386.71295837
      -836.29077271
      -843.20595835
      805.69110946
      4057.18439437
      -2149.46950039
      3308.00744365
      5389.50317142
      -49.12146614
      1692.65556868
      -199.94850905
      820.33681139
      972.82519658
      824.23652212
      58.34353074
      947.33752135
      293.95100453
      2635.24701912
      60.15867186
      -47.32416030
      -5.94966896
      317.48807352
      1038.65790176
      648.32661803
      644.22224635
      173.53307903
      214.27666060
      2525.81762271
      369.03732966
      -551.03248689
      2439.05075889
      4786.91246122
      2459.85432731
      180.75959799
      817.33793430
      494.00246610
      -162.00462933
      493.93855399
      496.46821768
      -508.82696721
      223.82527694
      1257.12864229
      -418.95943226
      -274.40047615
      681.36345961
      -204.22317379
      -867.66672489
      451.16690228
      454.46386191
      -427.84432161
      152.23184819
      -850.42739032
      1932.38988275
      835.47389513
      581.66154982
      -1661.83453790
      2528.80583754
      1693.60936366
      -4398.56382213
      1889.34086721
      1462.51797374
      2428.22720496
      -6249.43511237
      3587.15162419
      -1698.13435603
      3990.23677635
      24.77417219
      -6689.76175563
      1366.70385448
      -2640.99008072
      1354.42737873
      6297.83233714
      -24148.52814249
      -788.47289015
      343.42706216
      1512.51286324
      1032.68839442
      2456.66497658
      662.96502488
      464.94167111
      -41.65801972
      202.64441509
      1086.85225617
      82.67013656
      19.18607604
      -497.43769403
      973.18715056
      633.84929889
      -649.51645447
      817.28732176
      605.13870692
      61.28754260
      1060.60195268
      795.94212628
      814.55777493
      68.72229973
      1044.22529675
      1121.97420969
      -2259.67960659
      4320.99433083
      534.49191421
      12.28967022
      689.69441943
      744.89929694
      907.89442941
      -1167.11655943
      718.96999149
      -901.08454825
      -1066.29891188
      1150.25985265
      1313.40405424
      -620.76871819
      790.92900571
      1632.92740370
      1082.53214484
      1574.03742462
      234.44421749
      -4774.75435599
      -3785.94871317
      4333.85847010
      7854.07285416
      10251.42409382
      3149.17827636
      -621.47915653
      3083.64653197
      4194.70278731
      -6022.17303880
      -3832.46965667
      12242.14789431
      -1132.64423824
      -7024.31436609
      -394.79811460
      -1082.96532113
      -4672.95959304
      7070.31755769
      752.79021711
      -1500.61231985
      1220.96701735
      -18716.99888393
      78.55021894
      1137.48638704
      2259.00047503
      3191.83854580
      1608.61418328
      3906.16057652
      -1599.26638364
      1826.61991471
      1795.52044856
      2307.89949859
      607.07150856
      2085.70618283
      4833.18452659
      -842.91734692
      895.94806521
      237.53352173
      1709.20295889
      480.68816519
      -152.60763323
      1926.79634236
      511.91115192
      -742.77793972
      1807.07562677
      103.79122266
      854.09747374
      -413.80390455
      280.45191886
      1402.54665184
      -140.85566181
      -1448.32284829
      -389.24002190
      1818.56452712
      216.99054371
      1152.49353791
      2239.01191929
      4577.69927284
      2486.50982587
      535.14715136
      -1935.03956452
      159.07376133
      557.52802048
      965.26012799
      -3500.97283763
      6047.39708566
      2640.15027014
      3875.27605966
      -1024.69427384
      -296.55253577
      5300.23312912
      -3579.41368319
      1327.39818751
      1925.14707578
      -295.47845095
      5264.78126934
      2200.72122859
      868.20734027
      -2623.27203112
      2555.52026943
      2369.78596312
      6262.99320184
      -4480.58924939
      3167.22793352
      2259.22811285
      1905.31552162
      12996.68424850
      -27399.67254656
      1983.17403727
      4008.54425371
      2768.82111690
      2969.49326838
      5296.01168579
      284.83623371
      1072.46845249
      -2526.68551239
      585.29946094
      2250.38934749
      974.89134769
      141.51938537
      1784.60913264
      819.02763999
      56.82486341
      -961.50171489
      1322.70272668
      -512.50750786
      206.73575817
      187.23930470
      926.05945334
      -1097.83473290
      -513.41024590
      -1122.41259193
      1200.72418252
      -635.58420231
      366.25033328
      1565.71239625
      652.92692568
      -552.19426336
      888.74745873
      1939.27824932
      209.82972215
      2160.76857481
      603.78360802
      1021.95031333
      1359.12447577
      -2947.23799258
      1448.11786993
      1022.62512654
      118.41360466
      4192.56260862
      4639.05796180
      1690.32242784
      4324.04427943
      7658.84505254
      4504.18639927
      -3725.33442860
      3257.82533241
      6610.47275374
      3357.75931350
      -2111.95935000
      5235.98557525
      -2150.99021946
      -4546.05224817
      10348.18038720
      7179.74499052
      -3174.16112912
      -2250.47639543
      3716.70920710
      2479.58512512
      5070.85736894
      2764.08040510
      2189.35552997
      3972.00581632
      -20980.90566408
      3189.36748019
      3117.95338045
      906.09177060
      3637.94301827
      1333.68803409
      2315.71762193
      1317.62449608
      262.61934279
      2401.03446761
      3523.51434186
      1325.94996950
      718.88158558
      2237.29790678
      4345.90525001
      2014.40065178
      2341.11300387
      1702.52814270
      2868.01306067
      3263.23130696
      5354.48537720
      -580.49001257
      44.06986000
      -1601.96600051
      6703.40124658
      3635.56741919
      1859.91561146
      -661.21493638
      4377.83789780
      603.58749724
      829.05719136
      -1639.93446235
      842.14246463
      3652.02348840
      1867.46243086
      10074.73135309
      2589.61476801
      1302.21765149
      3230.49748147
      3372.03792432
      3031.63503455
      5998.04881451
      -1044.27749981
      1679.85629674
      716.90723019
      1955.93949257
      2845.51384237
      2868.90498429
      9855.42538992
      11619.89686161
      -3851.31616110
      -4976.26856385
      12047.34594439
      22233.07205727
      -3841.96242393
      6457.84084807
      2192.28289540
      4563.17064730
      2961.68431049
      7452.62923848
      2864.34302990
      2174.31618181
      1226.06032514
      453.78074448
      6692.79795237
      12525.98996708
      4813.87766705
      4181.97331472
      965.10444601
      4345.99192946
      6445.64343801
      291.84782451
      1886.41047868
      1394.52909646
      3264.97445823
      4063.31498154
      496.34322760
      -2592.45510434
      1529.39944228
      -86.54398021
      773.95932568
      1198.24698929
      2697.77210772
      1785.50671814
      888.63228704
      -516.59850594
      -589.04484827
      -1006.35009027
      6103.80121557
      6448.76212674
      7181.25433581
      3648.16249164
      1737.76884936
      7905.24683312
      7426.36723891
      357.77632707
      4298.11393762
      -928.09164351
      3345.11479345
      1831.26486697
      2278.50439147
      1655.80171117
      6631.22460208
      1207.38440058
      13162.25667480
      4935.81926470
      4184.04622614
      4055.85520651
      6079.46415391
      2651.37748019
      -274.22420114
      1892.55650873
      5153.41356466
      1400.55736041
      719.19365639
      1750.88032561
      2258.48860661
      7455.24081575
      -2533.19551022
      1169.20092029
      7994.15442708
      216.55694879
      5519.74085153
      12639.73523261
      8434.49440525
      6495.13996170
      1995.70868625
      2307.81716094
      -1715.75608695
      3320.40362380
      2666.77356262
      6157.59055927
      5000.86631952
      4982.81240503
      3858.15481535
      3321.37049169
      420.99906514
      2507.46547239
      3807.54487615
      43.46678148
      3128.56008441
      649.09248193
      4615.17161214
      7577.81245979
      -1056.53334135
      2641.37966334
      4278.98191790
      2260.83823556
      9551.91931354
      5123.81439390
      3076.44299643
      6829.89222879
      5633.28029512
      2759.83424727
      6454.49219385
      2062.17900568
      6513.50691030
      6965.99253327
      1996.97480328
      6307.71771752
      3690.66860304
      8471.31598488
      6287.24653892
      901.68179886
      5382.29987918
      3807.82455111
      3843.37140323
      3101.28469327
      4724.91623914
      2229.30868785
      5073.86917613
      4590.14644382
      4276.11662553
      6272.49580120
      2291.02046490
      2943.47474379
      2549.02414811
      3407.30954499
      214.06576300
      1574.64728817
      3178.21974391
      5284.33438758
      -2778.39332584
      1287.30880736
      1545.73530803
      7501.89474792
      3335.23376313
      4230.34495665
      7083.47874582
      1756.81740940
      2460.09639351
      1150.72932745
      -1591.91172039
      -455.22386068
      5774.90306730
      4007.91170559
      999.81612337
      1680.55817969
      -21336.21804100
      5541.77777378
      3899.42451537
      75.42758884
      5534.61204076
      474.98865719
      3614.89744657
      2180.76229517
      6317.16389992
      6220.95523478
      5467.77417065
      2609.95254793
      30146.07461253
      467.18156792
      13071.67075701
      1794.48671432
      2902.69291461
      11419.34565843
      4969.31010896
      12231.19097098
      9472.77489945
      -253.82906654
      12758.46395866
      7430.02681845
      2910.33020658
      17568.24557766
      10198.97080402
      7372.08490506
      2833.40441745
      6901.00472225
      7196.81772528
      4168.91284310
      3178.65552240
      10750.41792356
      -3.87574938
      1534.53086736
      7945.86581260
      925.09258759
      4687.04139725
      9943.27716718
      2777.14647036
      7165.19710685
      1832.27088181
      3821.98861058
      7392.99209713
      2736.39650054
      3427.76339211
      3050.75969101
      2310.50990099
      1688.98037147
      1660.88769482
      6603.16214936
      5856.45863113
      13276.69803404
      5014.42273068
      1835.47054324
      6853.60098934
      2344.73947757
      2699.43771170
      2281.49885466
      -3493.66732138
      -1646.01631486
      2849.81768452
      3341.54692736
      357.77862363
      8422.43153639
      3982.51959295
      -16161.55176151
      527.98950941
      355.18767645
      1450.06275153
      6023.90602253
      1816.64578538
      3827.59885513
      11324.19235322
      -192.47875990
      6013.80350186
      7735.53790591
      2976.37466006
      11610.97652149
      -1491.37183670
      7521.50705364
      3299.23367784
      7458.46576273
      11228.43039132
      7458.66262132
      -1708.70508622
      5177.00200183
      5412.02684032
      2904.14133011
      1820.89548030
      3899.92021029
      4006.94343615
      1738.32778197
      7116.03828191
      3110.05050269
      3990.39960500
      5528.03560751
      6694.84165937
      6440.42612011
      9811.14429457
      3585.93216158
      216.70033195
      7428.87034112
      3648.19744372
      -608.80133541
      9458.53764765
      2603.29015950
      6128.15472568
      -553.63257946
      8807.73613923
      3269.44852717
      1190.21388045
      -2395.09214483
      1131.35738769
      2473.35641667
      490.92815596
      2574.24892164
      11799.95669486
      2672.71563992
      4272.30098595
      4254.81179193
      1685.24904299
      -975.45560111
      444.67608505
      2808.24570799
      1599.90349368
      1169.18656595
      3048.25650995
      -1321.61446465
      2732.38837738
      3073.83147163
      -18378.22992136
      -5122.03323266
      1925.26917457
      7945.45595918
      5711.73977703
      -730.56101802
      22945.35783329
      6534.84831795
      15092.01466382
      1777.21487810
      6050.40756437
      5915.30551540
      3852.54916973
      17833.14981008
      8254.98040096
      4603.30461685
      2622.63011681
      7165.63249821
      975.90806127
      -705.96760176
      3262.11528716
      305.21829399
      4095.58854213
      4221.76474475
      937.61134469
      3430.85765623
      696.14056089
      1670.86875939
      506.35192483
      1576.78689244
      6133.34005729
      6705.43170132
      2348.40697482
      6959.22947135
      -2524.16400855
      3243.01441638
      1489.31128306
      1812.54348992
      5057.68479397
      3066.65284605
      5386.79342854
      1189.53127378
      1692.18382663
      4406.87675692
      -1044.41702959
      227.56398341
      495.40212851
      8983.04446828
      3511.73490708
      609.16416633
      2866.60103200
      1551.21184008
      1185.87859634
      6349.24967444
      896.92378447
      -1144.26480298
      622.72810800
      2877.79132225
      3934.10748615
      4627.03121115
      3376.17314588
      4146.38845347
      -321.49633403
      591.85467914
      6502.60427437
      4142.01892000
      -15857.23209146
      2023.25344911
      8933.71996920
      8417.71065359
      9873.86089778
      34129.00367878
      7434.42219476
      10820.90003128
      5486.49850241
      19276.99057895
      16381.86950982
      12900.81698872
      20259.20243733
      12745.53521320
      5568.06559376
      2586.05526355
      4506.78183379
      4504.35646647
      2255.89077910
      689.25125252
      1180.18472105
      4110.89226564
      1269.97426475
      6341.63150246
      3143.85038329
      5311.45565609
      2398.67039526
      785.62811049
      -754.45467251
      1316.12058177
      505.07512679
      513.24193301
      3433.64812121
      810.31292605
      5052.48687933
      2697.74317913
      3475.58938283
      5450.11207680
      3354.53837014
      2517.55871605
      2271.53442103
      237.40398556
      5820.22941495
      7446.98801420
      6592.45771432
      2183.88321705
      -394.73086413
      2043.43266610
      -1858.49617494
      9124.09992355
      -1632.58181629
      2510.74973945
      2885.25022243
      2197.96033801
      3670.24027529
      893.61945818
      423.92684962
      7651.19315019
      -176.91029352
      -2559.04151075
      -5456.60927545
      1957.80259771
      4160.40591606
      6141.52899012
      7393.86972025
      2210.03721276
      -2786.37545633
      7114.40647524
      4416.06809614
      24692.08379296
      3562.06746306
      244.83038048
      24831.81119615
      5104.73378304
      4876.71292977
      7372.92348303
      2284.78648209
      2627.56605661
      386.25820407
      14016.83377661
      2945.75468589
      686.00160914
      1831.93346263
      861.81497420
      2298.12685861
      2248.74576266
      2779.56686886
      2720.69039817
      2331.59857125
      986.67917169
      2460.83359080
      1403.93646366
      358.33947688
      2317.75711899
      5517.69609727
      4547.85915681
      -137.88291356
      -1249.48768751
      2724.69468576
      3355.43422090
      3226.38833467
      2949.12857477
      685.89194972
      777.31479632
      3491.18500752
      2567.07989522
      -2138.74576040
      3523.10975256
      2878.97740370
      -1841.75492453
      1646.59000003
      3606.83167836
      -123.28295077
      -777.09045340
      2346.82221802
      6757.69466583
      582.58847187
      2544.89090307
      584.88044755
      2948.46072859
      5353.78477901
      72.04578039
      823.19631182
      2030.46600740
      354.70483643
      -2827.55718287
      2201.65398910
      2092.88839510
      3420.75106220
      8607.72871413
      3169.04894832
      5343.84589362
      -7886.36499036
      7200.50146810
      6807.12622192
      8238.43483421
      1917.10414247
      6584.94385888
      -205.15865483
      6515.47423925
      2896.54773444
      3264.09531713
      10741.44039972
      -94.80385967
      1733.38635952
      6877.71107599
      2981.33856406
      5157.24943201
      1864.12235899
      2934.08910764
      3937.18214001
      1296.49413829
      1530.90560907
      3187.32875935
      -1441.95206779
      -1309.12535142
      3916.02113548
      2438.24328019
      2516.79854121
      3383.72276219
      3607.21879263
      9931.39070725
      1797.32760668
      2893.82533194
      2445.55457131
      1852.54372413
      2343.90160860
      3876.38753924
      9036.10518025
      -389.09778193
      2338.68523757
      2635.83018507
      4068.69119845
      3754.87989388
      3210.48636572
      2007.58974980
      -489.99590321
      1161.67887370
      2045.94315628
      6347.53458646
      968.71052622
      -1953.44544837
      3400.37820438
      2229.66298917
      -823.27713801
      -535.96603830
      -5939.92696862
      2698.46077837
      3360.82452092
      7274.68068689
      1424.13501310
      -61.89065546
      2242.27115469
      815.31059249
      -1254.82880378
      1681.78201207
      3757.74967134
      -2566.12403618
      3851.16940841
      15283.41218159
      13519.63123784
      14146.77233979
      12795.60922461
      2003.77846285
      2949.00258703
      921.57147989
      4552.49337465
      1413.82880958
      2917.18827576
      3807.72154246
      4162.59568519
      -1035.70474461
      961.26158080
      981.11180389
      3037.51460045
      3477.38350824
      -5858.64100432
      -1333.06763126
      1516.97583702
      102.94628127
      2265.80468131
      8610.50077421
      1879.33443452
      2954.42668501
      2193.40224278
      2488.07563596
      6418.67651319
      581.85309429
      2414.97591908
      4743.14563214
      3478.52238808
      3950.92623507
      2061.08012946
      -691.38416964
      1415.08033817
      1966.07557714
      2173.66143819
      1996.27882594
      764.11957433
      -2159.03887210
      4963.82421768
      -497.90978891
      -949.32070453
      -1802.22298772
      1005.26693097
      96.86233431
      2147.71297617
      -3714.89725534
      215.05670797
      3695.02894459
      -1314.17931983
      3220.93508504
      3161.02844202
      1445.57989578
      6462.55861009
      3486.50686933
      -783.83620080
      3107.48888548
      -2895.85760858
      1598.59029543
      2754.40572278
      2028.83653856
      -237.53083712
      2261.10749038
      -28338.34729544
      15932.18803308
      5757.53776175
      4515.82101373
      12971.13765709
      -606.14778566
      10141.61509833
      4316.64405076
      3886.82223477
      4760.88177121
      1387.11599921
      15945.75350470
      8324.04256621
      2173.72452438
      2002.85353894
      1613.02499147
      -466.42109186
      1645.34684984
      2707.11376659
      2387.57765645
      2181.01814537
      3403.46224177
      358.24749579
      2702.07033637
      985.15069796
      5228.22609861
      4275.10716788
      3313.46992809
      1276.46335043
      1203.13390717
      1109.54894685
      3516.34634826
      3324.87627462
      2094.88598765
      626.38890567
      1523.42460705
      -83.17774366
      1627.24714868
      -109.12219997
      781.91149290
      1998.15564473
      1878.69763906
      1287.71284920
      -14.83314126
      2901.73042057
      2952.08111816
      3966.55817947
      -527.33770552
      -1259.39248184
      743.94483093
      3930.57575682
      -1201.83298306
      693.15870778
      25.64569843
      884.58582580
      2443.06327196
      1383.16932113
      -1382.14676445
      270.53462961
      548.47876783
      899.09552540
      4924.06772049
      -692.84924368
      5036.22956592
      10844.98262413
      6468.36037522
      7373.38992017
      8400.31593789
      10978.03697045
      23445.31955880
      1026.70149635
      4098.00109310
      2169.40287356
      1697.13340415
      4108.24156443
      168.01477965
      8523.23376057
      594.52811228
      5129.63740864
      2532.80606145
      1369.71840436
      1226.97419581
      1710.01895711
      1177.62589344
      1960.54129785
      1694.93381064
      2471.37756920
      2094.03611421
      2655.13832872
      2755.51057161
      2732.55873228
      1469.20993518
      5014.52347718
      1821.50024210
      1933.90815317
      856.76841133
      1087.05017631
      1276.77119524
      2334.15613130
      1462.47798343
      1031.89530247
      1316.30543257
      -154.63051867
      1879.10828832
      2436.12113311
      -2037.15358823
      -5477.49907372
      5120.30891211
      -2358.28989624
      322.35991851
      -4610.38694204
      1556.52223248
      -2558.09541588
      -70.23671844
      -927.51886867
      1345.76880928
      368.28177368
      2681.88784165
      1341.82287999
      -1718.71458491
      1059.85127685
      1688.82820982
      17.97612697
      1764.47351893
      -2062.20315283
      3689.43524603
      -72.79795981
      8933.25264770
      6314.57803326
      5597.27051139
      18902.49306166
      415.63918984
      2106.53430457
      8337.66988366
      8177.51031632
      11932.76123651
      7860.40721479
      -1684.49756975
      4992.46422290
      937.02428123
      2427.33767533
      1811.01102786
      1558.90993934
      2148.19538858
      3639.31412991
      3619.29941431
      1244.83377998
      493.78895625
      297.64705627
      958.90905324
      1293.30167037
      2168.11657052
      1997.78031822
      2153.99227958
      1228.98009138
      4002.37398407
      2305.06123687
      4494.45672199
      2508.32350386
      2747.66017938
      2223.99297416
      1210.40906468
      -249.21613694
      690.27429495
      -27.53256142
      151.42441426
      1537.91810168
      786.08606075
      1389.18657296
      492.64231278
      37.29844696
      -591.44645139
      -275.14573018
      1309.81858307
      1758.07535519
      -652.82680480
      -3355.20186952
      93.05069751
      -1907.63518681
      -3292.57534769
      1459.75453174
      3265.99992460
      3558.02111725
      344.59312124
      -2395.94540416
      625.96024692
      -493.47264857
      -666.94312297
      2081.29049700
      3465.45033798
      -4306.78622368
      9004.19211076
      6348.83130469
      13298.73510136
      -4036.08393698
      3397.48926748
      2823.70397863
      3063.48860247
      -30962.88851667
      -5678.75686574
      7643.29027238
      11276.43722912
      2707.77740672
      5332.24262621
      3551.81024398
      649.39747126
      836.92525629
      6007.79927196
      1414.34199849
      3117.54171193
      4092.18477950
      4041.33678143
      3862.40725055
      5562.93095024
      3966.45108412
      927.43900525
      483.76781019
      2813.23096023
      -443.37606432
      1768.65796659
      1313.06489357
      1446.11452455
      1653.93772134
      4358.47667269
      3973.94616497
      4637.30549894
      3593.40433215
      826.81206689
      961.53870056
      2825.67849171
      157.65803939
      1659.86853418
      3334.74719675
      946.49353925
      61.07936071
      1323.71362047
      1201.25196355
      2068.94959534
      295.35758928
      -462.40870812
      790.68428921
      2000.36700262
      930.54361918
      -2895.06925307
      684.41990774
      -1144.78671646
      -2650.37936894
      -1468.89057859
      3455.64496587
      1543.83275173
      1755.19696779
      -598.18649790
      860.78876161
      2218.44803866
      8344.15154020
      2666.08000657
      4148.31741582
      7.90722517
      9513.97477416
      2791.77144713
      4093.32348381
      11584.67659750
      -2977.44881602
      7262.09904189
      -19317.15986296
      3439.32525334
      486.47845478
      9248.47479750
      4775.21576871
      5042.68689845
      2736.50709925
      3089.08181556
      4528.77271586
      3249.83565136
      9586.04062860
      2622.45949274
      3148.81827638
      -1522.60759336
      1860.50584218
      428.87582825
      3612.84841494
      2540.95604760
      2476.34658458
      2867.74369903
      1989.93360084
      2607.98276158
      1880.10178817
      964.00105952
      2850.78836231
      1567.54580114
      1930.10506030
      4301.95483342
      4582.04841931
      1551.78014411
      1228.37160074
      2965.88018734
      4101.13356391
      3532.33477230
      4080.65570096
      795.32292753
      -9.66749013
      2017.87747382
      2919.28383559
      1878.07241793
      872.57372041
      770.07448884
      203.99676508
      1620.14235491
      185.97324048
      -1542.06660157
      1419.05377882
      -629.79906318
      1134.03990656
      -1568.94764687
      -1165.05232511
      346.42009291
      3664.29327789
      910.85838798
      907.85444100
      6809.82733394
      -2562.07813393
      -5830.45647720
      6005.34145316
      9708.12062885
      7975.89162186
      8363.61148212
      9743.31810813
      4933.31865475
      2331.39739094
      964.62197082
      3211.75720808
      -13049.70037050
      10940.58713823
      15940.79741588
      3922.23433154
      1081.79137779
      4516.91771855
      2932.49754859
      1728.99354807
      5190.82973912
      2239.45639734
      3970.80331856
      978.28102397
      8994.03950920
      3214.70452444
      1438.04557169
      1432.57257315
      1836.58706764
      1395.78353877
      -538.12943326
      1858.39169076
      884.84441800
      1454.91732193
      1021.03596706
      1396.54175711
      2151.52094088
      5461.22612239
      3188.35495546
      5052.85280810
      1395.36234458
      4411.99916621
      730.95647141
      2558.51208067
      -715.19397690
      4842.10402671
      -2135.20940130
      3105.96874124
      5806.60253100
      664.79543813
      -1255.74103651
      694.81153427
      1096.08740763
      2077.13356425
      2101.51421453
      -670.40904365
      1976.26554670
      154.26261301
      -2337.03915809
      2821.19801365
      2426.42438493
      953.35802278
      1960.51177145
      -1068.17456550
      729.83578404
      863.35054726
      578.30910535
      837.61772748
      496.76033001
      5950.94364468
      11223.95577971
      3860.16613491
      131.88665043
      3633.70944742
      12410.84884280
      8417.56932739
      2967.27869531
      4188.11295407
      1351.07896724
      2412.92661392
      3970.52935457
      4114.42426975
      2191.23429133
      4281.14780473
      6245.31802822
      1563.53092480
      3425.09561643
      1837.22712014
      1662.88927357
      2277.65851587
      2395.14261491
      792.95929836
      642.92511559
      -1170.22618711
      -332.34692936
      1278.23340520
      475.02485151
      -131.17899225
      4247.03110947
      1695.61208391
      3386.44708383
      2689.95495791
      2999.25152211
      1727.71409023
      3787.67888429
      2575.21542758
      3338.90122124
      4349.48552712
      2599.26852797
      3260.13064211
      688.11385007
      38.14100684
      3059.94385775
      -758.66697091
      -783.79111121
      1317.67332429
      -429.43133617
      4714.84139828
      985.09568351
      651.07741916
      -922.56140261
      -55.07452434
      -603.42954743
      802.43652419
      99.49206772
      -41.79955238
      2366.58152784
      993.58626344
      2146.31858734
      4838.05001634
      1143.95166065
      848.18542050
      -408.23665277
      2863.23595765
      -2025.59367039
      -62.08317278
      2299.96697540
      8234.70030499
      4714.49250727
      2430.22156586
      1941.35202615
      -3092.17800552
      -1655.72522047
      -40161.08078057
      15053.49389798
      3339.98368059
      -1013.35947822
      5681.30050998
      3392.54159801
      3113.87829301
      1797.13544631
      -542.58618022
      1088.50416420
      448.22502725
      2394.95273183
      1748.41663966
      8248.38333079
      4978.67701931
      2762.09585749
      1234.32332974
      1055.78912706
      253.83724941
      46.25585823
      253.75377539
      680.71006938
      1161.88543430
      2479.41595742
      3002.06406944
      -32.53328370
      3453.15215404
      1300.65932575
      682.53746530
      1397.49251255
      1557.88536123
      1754.65291425
      1023.63167989
      283.24057372
      400.96366293
      116.91136027
      -65.98583209