<?xml version="1.0"?>
<VTKFile type= "UnstructuredGrid"  version= "0.1"  byte_order= "BigEndian">
<UnstructuredGrid>
<Piece NumberOfPoints="5123" NumberOfCells="5123">
<PointData Scalars="Pressure" Vectors="Velocity">
<DataArray type="Float32" Name="Pressures" format="ascii">
      -21409.36574081
      3505.41105742
      10083.74760497
      36251.75426970
      9395.99674817
      25431.74285280
      42493.49873618
      18224.18357592
      32850.20588221
      20899.57100532
      16476.14061885
      21461.93465549
      18001.17229377
      11418.95586911
      30985.85252390
      4009.28827617
      27235.11632364
      26719.04251762
      9613.45787994
      13938.22079935
      11527.40474954
      3920.37979853
      23257.71672400
      1002.95369949
      10431.61163450
      22050.82855433
      2038.68823297
      19563.48086839
      6697.57623601
      2178.80212253
      20192.72391904
      3940.59036661
      2665.14751980
      13812.86781460
      1838.23591500
      14368.16820191
      6432.97709597
      1481.08237297
      9199.49450224
      6791.10933883
      1998.44924987
      9246.63671712
      1654.45599721
      8055.19856440
      4806.59956805
      -167.50460079
      3796.35267009
      2644.28271926
      -411.58995317
      2538.49859698
      2836.18545672
      1328.64858067
      1667.02110250
      111.57230918
      2727.99854358
      -83.10445781
      1898.56293670
      -344.21638394
      -455.88286033
      1127.31353917
      -835.59457899
      -826.54329564
      -460.91597737
      -278.73949920
      -144.91339507
      -1330.53480295
      9740.10405553
      3495.47281096
      6574.44312447
      9218.56163417
      8824.96003196
      8418.11634887
      10186.42925430
      8347.40819257
      8751.58644939
      6402.14515606
      5536.42403025
      3930.34157731
      6170.44761668
      7994.96098597
      3617.01208131
      9236.26702950
      9234.40565772
      7950.38495432
      6212.59989267
      2115.39561970
      7215.02831396
      6437.94409041
      4070.16011523
      3312.46951691
      5476.28864721
      5374.48445770
      4439.36929745
      4843.73293130
      4961.17183323
      3786.81276449
      2456.87446368
      2814.42923106
      1675.36272529
      3828.14526989
      2289.60545588
      3838.79829018
      2196.11047852
      511.73272251
      2143.02413403
      1422.39340641
      -125.78878345
      2035.14594417
      1684.04255097
      2152.87429303
      455.38713976
      -134.59265724
      2055.83159712
      1279.18253663
      886.52042141
      1402.81945710
      660.62408836
      -22.54136464
      428.93591235
      47.65244449
      603.79281497
      326.74799969
      1211.27200908
      233.95081011
      283.33509436
      -321.34060266
      461.75591168
      5.27521389
      461.75017997
      409.58678193
      -489.33091910
      479.66403563
      4471.03701010
      9482.28661118
      12478.25316230
      2312.56554623
      5224.19174585
      9033.32984242
      7809.88832372
      3589.83728223
      4077.38754840
      -272.09549249
      152.74266506
      653.09373779
      5128.20114654
      4796.45581262
      3011.47263845
      438.41895374
      1535.29769394
      -3129.96168869
      2496.55363179
      2000.62540213
      3429.31615316
      2996.90010809
      435.19415123
      1827.17291978
      3919.85316034
      2481.58442178
      170.65039180
      2474.25382118
      3348.08835459
      2156.05521422
      359.03454158
      1606.30774579
      3516.76743776
      1692.74989395
      1942.03801210
      2643.23197577
      2172.62579927
      940.55619437
      427.30623361
      1629.05787753
      3272.31392886
      2125.81518072
      905.49156477
      1515.36737488
      1942.06608733
      971.99038817
      65.36767376
      885.96432197
      1230.77962112
      1078.37772391
      -55.50668652
      -1187.84690548
      -165.43702062
      506.14537831
      487.71211674
      -575.00027466
      -1006.21272983
      466.73970266
      -950.48624973
      -1495.67238322
      -839.00598627
      -1297.70408741
      -548.46889736
      -1031.46694551
      -2827.93393653
      -240.76237449
      14852.09714261
      12887.54283564
      3915.35620396
      14273.78133783
      12704.23601627
      4392.17544538
      16341.26723620
      8625.60208192
      11529.87040911
      16788.59917471
      14623.86207909
      12041.40340863
      4066.14581229
      -553.53598634
      13204.59848447
      9617.52030437
      6129.43765401
      14305.69345866
      9070.94029810
      1089.77047253
      8333.80687112
      6541.62096082
      9454.57255131
      7445.39111390
      2786.35485238
      8169.12122719
      5369.90735817
      2063.68452278
      5970.74615740
      4187.55076563
      5361.73585283
      5338.56535324
      1549.88861175
      5726.69342673
      5650.42009092
      2687.42293121
      5010.56335957
      4925.75093080
      3362.67653118
      3954.70061787
      1100.79370239
      4039.49600872
      3121.14602797
      2078.61593064
      2543.95092318
      3128.97196225
      2741.18374715
      2098.30532073
      1189.89497047
      2373.56107641
      1494.68599922
      740.02630831
      773.60105814
      634.18694419
      964.72922734
      1215.37534798
      929.77244303
      810.39843372
      501.33847303
      503.01285799
      249.26073422
      -6.75057527
      141.74935774
      -155.54380126
      -545.44490748
      498.02999568
      19455.58644905
      12680.20515496
      1698.63152718
      14180.05256097
      11932.73092170
      122.33991017
      15753.27126915
      15940.65451763
      12702.22442535
      18294.23600777
      16946.87702728
      5691.81331879
      5931.79961588
      1800.58565487
      9810.66326110
      7683.13601678
      5350.34355131
      10255.06316515
      8391.10551078
      -110.32483360
      8961.85101878
      1438.38777099
      10230.22297376
      7921.27263983
      -1319.34151720
      7934.89643845
      5722.48032824
      2001.60155493
      6307.22779628
      -39.70512077
      4270.22460524
      4132.57451025
      1290.60315216
      4765.16436542
      3382.44788420
      2180.83705923
      3359.81784698
      2619.53067316
      2359.10824112
      3250.87851362
      1041.00287693
      2750.59424800
      2128.53147346
      1860.88203550
      3013.03517881
      2266.62585155
      1671.86426989
      2159.08914261
      809.80353852
      1863.98973972
      1580.22985831
      359.15795318
      1300.13857326
      1808.26185850
      918.89634677
      847.81203324
      547.77850667
      1046.56295028
      629.34016743
      536.21512825
      268.71818247
      124.50664021
      268.77946025
      523.39242951
      -274.27667655
      -63.41558390
      20164.10705244
      13506.47980428
      161.98681946
      13466.72290603
      11476.85917344
      536.69153130
      17702.54071772
      12370.28029513
      12260.93435248
      19830.02465778
      9277.21758358
      7856.57559824
      8536.68630327
      -2650.06354914
      13075.58032135
      7406.30716309
      4951.46216170
      10694.88829587
      6419.05784323
      629.69996756
      6590.96677678
      1224.81871248
      9144.10992068
      8556.64672107
      4180.20025625
      9911.97767994
      6285.03652621
      2759.77235025
      4225.15067812
      1761.95998842
      4743.80772036
      3058.39127788
      1316.23806602
      4273.53901175
      3794.44490116
      2607.95783633
      4183.01217627
      3848.42353165
      3656.55724282
      2444.12742998
      1865.19528777
      3167.38680396
      2134.00370358
      967.25174601
      2957.74740225
      2489.44269221
      2194.94811975
      2373.34586974
      937.02643118
      2120.83499059
      1672.87717716
      285.77670728
      1068.92004777
      1658.96758626
      647.46088037
      773.24897597
      -204.37879335
      824.72579460
      816.84368575
      212.32860895
      348.10208490
      224.99933973
      86.29463166
      207.65829611
      -139.71824471
      141.68294700
      13141.86758538
      14208.86488475
      2675.99049317
      13060.91544309
      12506.26412632
      71.17542647
      14560.75635137
      6461.01176425
      8339.84612250
      15566.76540759
      8023.24666929
      5265.04482809
      8710.35461760
      -3641.13629740
      10789.78461628
      6858.68192892
      3467.21198013
      10669.19980720
      7530.46254093
      -2875.87112665
      10921.59569151
      5103.52800497
      7824.79627874
      5042.54820125
      3269.31808697
      7784.64221722
      6114.98215901
      -202.84561923
      7056.67492305
      3235.60122844
      3811.32037281
      5058.92444773
      -88.03139445
      5818.73908803
      4243.15974205
      636.76607323
      3836.06387946
      2960.44638704
      2582.53921569
      3578.30066447
      173.79356970
      3592.05136591
      2870.00622543
      1267.29290912
      2622.61601968
      2466.83914326
      2118.34958265
      2398.17005875
      729.43047656
      2221.21313672
      1943.15158792
      715.81075339
      1384.93829343
      1343.05849255
      1703.39240742
      1261.59716609
      172.81529503
      838.06165950
      867.74805136
      367.98606427
      449.56430865
      166.74822631
      206.97944158
      398.04008193
      -181.55862173
      278.31702802
      -3885.32049043
      3758.32813427
      18910.91274177
      1491.96695874
      1178.76125365
      9448.66671318
      2020.18239100
      4785.86491268
      6619.29839064
      -2354.47648730
      7235.74072178
      1631.37799970
      -1822.74246810
      8201.28617316
      -1212.51108765
      1330.41206546
      7600.45451853
      -2076.70790083
      2176.21073624
      2498.60183277
      -2101.77317724
      4864.62523272
      -2042.32114975
      1101.03935772
      3904.17159401
      -1297.35445059
      1216.94004785
      2117.54423718
      -1226.77027143
      3080.70478731
      -1329.07181913
      364.22290741
      3328.59946071
      -1463.97077423
      2202.57126786
      -51.67137045
      -475.80542227
      1337.93935956
      -1133.86515745
      76.59971124
      1128.33366750
      -854.05781077
      1643.09103927
      749.84896877
      516.55116229
      752.47741624
      -493.04355302
      1351.07438495
      -209.62831285
      440.38957252
      768.40098629
      177.68751649
      408.30418599
      389.11116417
      -435.49193196
      753.59935935
      -62.83802120
      287.48929903
      -36.45879220
      -226.61712816
      59.83632758
      -171.03656409
      108.22091656
      287.97835979
      181.15611033
      -150.55929420
      14627.79916029
      13540.78578680
      2955.51533204
      12373.03429852
      12116.02350227
      1325.84991736
      15492.45052947
      6492.34118326
      9528.50769656
      13405.98604054
      7668.70442183
      6450.35073194
      9407.21154149
      -2933.26321619
      11501.40355853
      7460.46174591
      2687.77734603
      10829.71504993
      5467.27283482
      -2769.80152173
      8884.13637867
      4899.30723561
      5688.58002158
      5967.64142140
      2567.18808478
      9793.87694738
      4922.95159962
      494.49450627
      5514.64217348
      3889.35739610
      4398.03914327
      4281.44289875
      -1095.24719744
      4222.65072256
      4233.94583106
      694.49228089
      3829.52814816
      3270.76176632
      3256.36869605
      2872.25327151
      104.55061040
      3147.56030392
      2449.69345602
      946.88444533
      2511.07204577
      2375.84981271
      2847.37524089
      2346.11667669
      553.27151293
      2495.55325587
      1892.39661281
      567.26426039
      1308.12475079
      1235.17250248
      1376.71018900
      1311.63416942
      50.06462508
      828.88031324
      827.97550774
      767.11627777
      395.78406510
      139.38898913
      447.18261171
      287.62889365
      -91.89486159
      261.85488505
      19500.30086931
      12905.48843973
      -1065.77540854
      14229.79949528
      11958.45676492
      42.51097671
      17832.09645500
      15552.14541553
      11992.30883137
      18040.43547461
      8370.52391245
      7625.73111773
      8086.59157520
      -2639.24751791
      14376.57102032
      8674.52209080
      4859.21649228
      10713.29578131
      8867.17698195
      1685.44159134
      9546.51664055
      2057.20096743
      8735.36464244
      5423.47373508
      903.43378184
      9147.29269242
      6201.43380933
      3787.18617543
      6421.94357078
      2165.60350155
      4320.11243761
      4092.05987990
      2662.60612241
      3695.37853573
      3689.88596322
      2075.01748962
      3068.06160752
      1874.81758368
      2430.70454670
      2909.88770740
      1925.10786909
      2665.98563925
      1984.46426047
      1310.78059116
      2742.78083313
      2184.39852119
      1638.24654424
      2576.01422401
      839.69770390
      2055.12856275
      1596.41307143
      257.16021943
      1752.82702275
      2179.49136787
      736.57483740
      873.55689241
      138.31810060
      730.66298607
      821.19505821
      472.10950807
      279.47767194
      122.67904679
      315.05103019
      276.15278234
      22.65998314
      -34.43484654
      18821.94440428
      12707.37414865
      195.91063956
      12618.55540363
      12074.18100506
      1656.96100961
      15741.42219779
      7111.44067030
      10158.93814593
      17185.87484678
      7629.75602842
      5956.94122861
      5847.77318981
      -2207.39978077
      14825.39035509
      7320.71465210
      3481.11024210
      9197.04180127
      7045.03060628
      2421.05110351
      6368.36184685
      735.73440248
      9010.21626231
      5983.00213077
      1060.44576643
      9005.48068159
      4726.61429813
      3504.85515427
      4864.06291733
      1370.19975674
      3994.25639438
      3060.48153159
      2703.65274518
      2786.56712345
      2662.59061696
      1519.93606363
      3308.70885985
      2940.38688410
      3653.12282009
      2749.43286006
      1500.13371458
      2127.88775579
      1161.18400587
      310.39669149
      2821.33770267
      2071.04024783
      1447.16065919
      2370.49252312
      505.98140477
      2125.75001224
      1473.02458203
      243.05789242
      1733.84242571
      2180.32225006
      512.11803961
      592.05850061
      -541.22142942
      658.17512405
      752.66930811
      348.63919358
      272.80388436
      64.77462005
      377.69445533
      215.49830067
      0.38391809
      -73.94061187
      13851.23581336
      13498.13994687
      746.33444145
      12054.10737777
      11781.68933561
      1172.16049115
      16156.17613471
      7003.35359174
      7798.96480766
      14249.32401737
      6328.12542036
      5207.73717574
      8011.06656492
      -2116.91377869
      13274.62567890
      6065.59165586
      1795.66132471
      11011.49612242
      6831.77598356
      -1617.82362731
      10461.17574207
      5341.74924466
      6796.55947725
      5565.37619692
      1017.22971629
      7203.60611538
      6068.09866040
      -150.24018692
      6489.28953485
      4096.61018332
      3218.04942269
      3511.32328745
      180.94954177
      4678.25470461
      4103.18027378
      432.87015370
      3259.26721352
      2404.92832953
      2869.35228557
      3342.81196515
      194.16922356
      3237.48727122
      2756.35252006
      1108.77778152
      2655.98152696
      2186.46224693
      2278.01306196
      2465.89327869
      543.28230288
      2208.62906968
      1869.23728930
      438.19965525
      1155.20348729
      1174.24051659
      1653.43263749
      1333.69857899
      153.35887370
      668.83836960
      608.52289366
      480.45893372
      291.62949134
      159.41708621
      289.14246903
      311.06217141
      -27.87836394
      310.17216662
      -8604.21612568
      843.55112045
      17913.34359500
      3072.40241371
      2480.64485291
      7977.15974642
      1087.29641257
      2516.05366063
      6453.03345043
      251.75375310
      9827.65319740
      812.50318499
      -1254.69740032
      6909.77827365
      -1778.18172195
      1145.20919162
      5825.85274146
      -2941.25168575
      434.52339381
      1469.69292813
      -2079.33745490
      2956.81413067
      -1838.01205939
      437.97101842
      3776.37626116
      -2301.58848241
      -24.46540588
      1580.69901392
      -968.82501931
      2836.53948213
      -598.28578994
      45.25777862
      3545.17216999
      -1817.32369344
      1488.02753625
      106.36101667
      106.63471116
      1496.59773243
      -831.01191721
      -401.18441080
      1210.40428964
      -669.41643644
      1584.76180208
      470.82536666
      156.13233177
      1098.81149053
      -280.07550656
      1031.01636969
      -419.31573973
      287.62531273
      654.84116713
      182.35445222
      172.78947958
      314.41671771
      -487.33963829
      948.04100922
      -80.93522993
      253.46175088
      12.44865807
      -116.25853865
      -44.81151466
      -164.00706517
      44.51611536
      221.64022546
      237.39799723
      -241.53149259
      18333.01906256
      14841.48206484
      1788.93494088
      12548.65592941
      10782.24719859
      -890.77540397
      15883.97273092
      9960.63378750
      8668.12271238
      10997.70394264
      4189.16971212
      8617.75255585
      7948.03989085
      -3456.58819654
      9580.66706211
      7625.85968319
      3153.39019621
      8628.08323265
      6300.62975773
      -397.23196233
      7576.56927232
      4256.04242981
      5115.59603290
      5087.49601287
      -80.20780925
      7961.89332284
      4745.29053889
      394.25936308
      4633.68139999
      3359.02458648
      2835.89156107
      3239.37697633
      906.23248855
      4054.31834250
      3799.23620628
      455.78378850
      2785.54595856
      2450.36027598
      3643.90427954
      2809.87338566
      299.40986022
      2932.24293836
      2629.63688692
      872.30412416
      2366.94270263
      2178.78134691
      2429.63247001
      2277.71992035
      374.73799772
      2249.39145241
      1552.48971010
      336.38970041
      1390.40590562
      1434.09522407
      1244.66635358
      1357.99073386
      -193.46055664
      778.40637905
      693.37140032
      307.22794094
      361.43836238
      68.80092867
      215.31646108
      260.60790391
      -111.88872367
      42.22799641
      14269.50319980
      8941.96759419
      510.50576193
      13441.47133434
      11835.60145206
      905.80089276
      17620.27112470
      9030.62495485
      9243.53363428
      10923.68402393
      7027.33292506
      9637.34335018
      10917.05301901
      -234.05771614
      11602.02066316
      6731.46701932
      3406.73746140
      11261.76760746
      7022.96871962
      900.98527844
      9174.55780732
      3473.80836771
      7038.15662880
      6009.78404657
      2527.16066443
      6475.98545597
      6354.16129626
      1529.37829820
      4628.32967172
      3369.93797993
      1989.53327851
      4220.79868245
      2867.10313624
      3878.77010719
      3612.14023112
      1352.43630692
      3143.09062327
      2552.84801778
      1780.61611000
      2646.95574720
      1000.13731202
      2635.74724582
      2642.04547695
      732.73601527
      2682.20529686
      1895.21456973
      1970.86650489
      2727.17730472
      452.04540394
      1891.28013391
      1779.06849360
      76.81044159
      1362.50529237
      1597.57385482
      1325.26231554
      1247.42409152
      -116.37528282
      518.92059582
      770.60752760
      195.67728318
      336.64697931
      149.55033727
      131.55155251
      349.90664564
      31.93508464
      194.87249695
      3078.46591140
      11533.35882108
      12720.94009088
      4087.37998927
      -996.83248749
      8949.40794719
      9535.50518012
      10948.93278450
      1246.09860068
      4318.75652815
      5022.30304355
      517.70840658
      6476.25166181
      3331.47763391
      4661.00309931
      8154.24498324
      1756.61819974
      1638.52877727
      1241.10657358
      2427.99111033
      4885.14982187
      3549.97839889
      -486.21901803
      4516.23453296
      3348.16839887
      3059.47329993
      1275.81131463
      1150.30089862
      2917.22273972
      3364.06054254
      -1256.43544200
      2227.94300242
      2656.67739382
      2523.33393596
      865.91361008
      -204.83414493
      2707.66278957
      1903.30241209
      2678.48889987
      2490.91234436
      990.45467449
      2544.04449352
      1777.62574437
      64.82887871
      1872.34388348
      441.84290558
      -347.99028272
      798.35137661
      -689.48954108
      577.59234204
      1244.19000338
      839.62401940
      659.04222674
      204.75526609
      -542.65203462
      798.38635377
      -6.75665503
      187.48397358
      3.38765912
      -159.77847754
      -125.10052560
      -316.17949144
      -29.04618570
      105.58857679
      227.81372599
      -266.81401916
      29342.56958073
      11178.89766702
      -9770.88157584
      9358.39265399
      9669.47962191
      3626.05448514
      13600.16638471
      2611.53107708
      4698.36935647
      10398.32099660
      854.32788117
      2764.85785327
      5119.59746738
      2734.35561481
      12855.85863997
      782.95654582
      -3683.10194922
      7668.82506941
      4983.96801654
      4627.96906229
      2523.47507263
      9457.54046700
      6008.45435418
      2809.45435073
      -205.68570336
      3446.68762131
      6284.77622902
      3817.85422707
      1304.01088233
      7576.45911170
      3158.95437108
      1831.68313221
      2384.72605427
      2159.05582217
      4892.85132578
      2236.27065744
      2362.17286900
      2214.33313626
      3326.17929637
      3387.20587434
      1744.62715727
      2599.59807823
      4176.30903111
      2633.88922936
      402.09875330
      2893.25698423
      2121.06405117
      1553.63079899
      2038.99830812
      1151.37550028
      1004.08514196
      857.98496550
      1481.78398885
      732.07904663
      1482.87917315
      1176.20642613
      -49.72318969
      697.79182681
      466.35124956
      301.37557869
      181.05921902
      176.93764278
      170.08500856
      273.86479473
      -107.38503623
      89.73983165
      8286.93483225
      13060.14349580
      -3439.83116762
      9983.13567676
      8354.51685964
      7310.58797645
      14602.64072772
      2603.30938150
      9065.03682228
      8557.30045353
      4330.57851818
      2170.90865029
      -1037.88692181
      6859.09413125
      3994.94643082
      1550.50697924
      4636.53726666
      5624.32336449
      5697.82350147
      8014.88672731
      -2811.75947069
      3509.86385150
      4303.54049476
      2052.28176414
      1935.92385479
      800.29338220
      3984.97130601
      4488.22756564
      -3723.09627486
      2863.94011737
      3122.14042651
      2290.58062588
      3335.47942898
      -1267.49075304
      2614.08841526
      3309.80124300
      1364.50607254
      2600.52444440
      897.81628979
      1510.97580690
      2725.63421939
      -1374.78223809
      1265.60110238
      2552.99420768
      71.01566303
      2371.61778128
      1230.21189862
      1500.87492962
      1952.74505552
      494.41631011
      496.70119425
      601.00003150
      1675.02368568
      1724.20277418
      287.32071900
      469.66802573
      -306.33131797
      653.10148085
      670.31837575
      225.83082169
      -111.78535260
      172.39947730
      154.78832400
      111.76661123
      -56.32549060
      -217.56590210
      19757.12995483
      11453.99850590
      -1802.89847849
      13540.97356031
      10898.58463565
      -1226.07911737
      8352.29238985
      11700.56284885
      5294.74338656
      8385.62011550
      1839.26818432
      7140.56757609
      6693.86284940
      -1970.78740076
      9691.17051141
      5529.31847508
      1978.83264616
      6932.50281220
      6471.95285647
      83.64304049
      6391.84945404
      2244.33075174
      2742.91527896
      1628.64852753
      2014.43591296
      5781.87344395
      3195.01125313
      -47.75092922
      4820.07757141
      1850.12889750
      6.85345017
      2699.70078860
      2561.13962674
      2184.05726198
      3320.67102762
      550.91279016
      3327.46574698
      2187.52562831
      2015.28649467
      2709.89049763
      1696.66386031
      2730.64071981
      1783.17414287
      -74.34225621
      2279.80206325
      1513.86862129
      1368.55288672
      1837.74885768
      -238.21579737
      1823.37696103
      1711.41338943
      62.71784153
      1435.30337138
      1669.73468325
      304.88702441
      439.11167779
      -404.76037483
      587.03896194
      507.93277875
      188.82885048
      -166.55842616
      -91.77761687
      188.17448285
      69.48699987
      -132.85987405
      -121.97873953
      13456.52915934
      12061.40992646
      3656.23093140
      8905.64916074
      12543.81493946
      4043.08087341
      5197.62062955
      3654.13972447
      9496.24050674
      5871.33141575
      1140.63680702
      7653.95502379
      6057.62758240
      -939.86656941
      9964.73409376
      6653.71747136
      3232.05300241
      8052.48745370
      6476.62612057
      1227.49632240
      6378.93167058
      3509.75283112
      537.75695677
      2199.49702545
      2868.70547358
      5128.34639226
      5385.74707126
      -334.70962555
      3870.60139854
      3732.36205975
      736.85047407
      3676.85710485
      2749.66647164
      1572.95691266
      2743.98874077
      656.85805989
      3049.99483548
      2016.67815290
      1183.75276260
      1781.47462932
      918.44526122
      2694.82300254
      2862.26209583
      809.04522212
      2400.21153964
      1952.90652964
      2105.09579976
      2114.29848491
      554.11761177
      1426.86362793
      1600.52761631
      155.62043744
      806.90813280
      713.01837969
      1157.05210953
      944.08959567
      77.61065865
      355.29823647
      309.53953364
      278.71353178
      198.34227822
      25.07394197
      33.78692575
      289.94849190
      -17.62637118
      231.42048834
      -10282.07689269
      3389.04915885
      8499.76839924
      2523.78623027
      -2210.73921301
      5791.51798611
      9692.56714086
      10655.40131600
      -767.07101201
      1078.69858422
      8869.54690017
      913.11543442
      6474.98012895
      6575.10558451
      6590.58482613
      6460.07171881
      1495.57763683
      -1759.42118650
      2414.65970530
      3031.75112601
      2716.97729244
      5593.46789505
      1769.90527853
      4249.86803210
      3537.55306624
      -3006.14954222
      1912.99069765
      607.47374645
      1551.90720323
      3067.92189623
      -311.06514142
      1121.24730347
      1093.50371728
      962.59038892
      2960.33244864
      -527.76279651
      318.79804118
      1441.23829256
      -524.25427718
      -150.81385547
      1013.95916061
      -390.40864682
      948.21432775
      329.03871323
      674.33532015
      732.50373781
      -279.40724464
      693.39614125
      -811.75746068
      82.77119115
      573.91744542
      631.98284129
      246.15802583
      -200.91435169
      -828.85056163
      619.53638815
      -218.81571858
      164.41114203
      -231.40758798
      -420.60765600
      -178.56852243
      -479.82151113
      -142.13035340
      -25.89790329
      98.50185086
      -127.65224214
      16003.68590907
      4433.30669784
      -2315.12170452
      7580.66903711
      10987.41114664
      3582.01156436
      10201.88194832
      412.07769064
      4775.84869094
      7218.94908333
      1770.19908883
      637.22407290
      8918.66752511
      -187.37032760
      7155.65964863
      4800.69660624
      3552.12044732
      3960.55607474
      808.82179954
      387.85117583
      4790.38562041
      4083.30034566
      3055.06109734
      2990.33423433
      6235.82880033
      3087.00367977
      -87.95907072
      1167.72096969
      3118.47156600
      5428.67698369
      1496.79696529
      1332.26443370
      676.82809196
      2939.52220206
      2450.93593864
      -182.57247405
      2760.47527138
      1758.98835966
      1355.17025789
      1640.67535289
      1382.82485429
      2417.93619101
      2245.55943554
      559.63501594
      1854.71315387
      1606.01216510
      1586.29088351
      1644.49169003
      585.03219655
      1238.49329665
      917.06659933
      65.92544788
      441.07566945
      583.65724385
      1008.53055780
      992.51209274
      -82.16766677
      363.77385169
      272.41428382
      158.43516265
      178.08794462
      93.45462494
      26.33216360
      221.07535535
      -129.15621231
      34.35427944
      12224.43425707
      11399.70057677
      -3135.45233530
      8687.98077361
      8291.83344761
      5543.26323106
      12741.13910614
      2643.17630633
      8647.49795996
      6480.48490082
      1727.16654198
      4916.97117359
      1791.41562885
      5311.89418971
      2374.46641819
      -1105.00605932
      4738.88852319
      4906.74992590
      2846.20560016
      6389.35261999
      -1921.49116574
      573.95852388
      3366.37502314
      -1133.98501721
      2664.81824419
      3633.06317125
      955.98974078
      4887.40643369
      931.32934389
      1977.57135748
      3223.67931437
      2288.35901667
      3227.48436215
      -752.01160270
      555.74960206
      1136.56466193
      2521.34697566
      1658.59562678
      29.21174844
      1625.35692403
      2055.29934852
      1614.51695614
      1372.40386786