<?xml version="1.0"?>
<VTKFile type= "UnstructuredGrid"  version= "0.1"  byte_order= "BigEndian">
<UnstructuredGrid>
<Piece NumberOfPoints="5123" NumberOfCells="5123">
<PointData Scalars="Pressure" Vectors="Velocity">
<DataArray type="Float32" Name="Pressures" format="ascii">
      63.47490674
      -20784.98178907
      -25728.42700704
      -25493.28008765
      -24261.99582305
      -28560.32273856
      -29272.80775739
      277.09673626
      1761.19659985
      -23569.16128140
      1316.56397247
      -22140.43487678
      3053.87429497
      68353.20196547
      -20993.64946475
      2475.05855051
      8746.09364135
      -27025.94562458
      36514.72882686
      5737.56552707
      5803.81294021
      13334.56708485
      -1620.26012724
      20885.85353600
      2193.63991730
      12079.74326097
      22144.80640048
      24633.90319496
      5541.94969404
      32744.65718847
      -5535.13767799
      8659.67732163
      -11690.83468775
      3792.63529867
      453.80240366
      5689.58839518
      12590.76433733
      7993.50412691
      35714.81815664
      1459.03806712
      7826.14971760
      -26444.75774656
      10539.34564785
      4009.85200862
      3543.80343761
      3256.15599337
      -8658.54876638
      3372.64076846
      9061.33534437
      3178.37861199
      2977.06212434
      -2062.87162919
      -308.09840320
      4603.57109473
      334.49690892
      -2366.84941464
      3464.62420942
      7917.79802280
      12197.47042915
      6983.16121510
      -1314.60767545
      2563.64219728
      1209.53740879
      -3422.43156994
      -1464.74353225
      -4354.36106757
      10339.83074749
      5389.50317142
      2266.03484174
      22878.12706009
      3371.12941498
      2080.78102691
      5672.27281839
      3502.78745817
      58.34353074
      4941.92959509
      97.62623537
      2635.24701912
      -138.80639067
      772.75178794
      90.17679381
      181.96072295
      4557.16829529
      -119.71623105
      644.22224635
      652.15394265
      218.73676214
      -3798.11921457
      -1561.57481976
      18725.22526608
      -551.11456533
      90.51869402
      3148.87021688
      2358.85694748
      2233.18112015
      1116.73274404
      20203.01802863
      10392.16264314
      5000.26299953
      1815.27223521
      4799.54224653
      -2551.22547918
      4259.19797957
      -1259.96320306
      -7687.37363395
      -2038.84994575
      -6393.49903931
      2872.43256717
      -1810.53821496
      -2698.52431740
      2931.18944314
      13685.30644350
      4800.36121407
      -948.80336034
      1780.46559764
      2297.79221986
      -2354.78924538
      733.46066548
      3303.98057176
      246.46645461
      841.57040069
      61.48768343
      297.68258168
      8726.39892697
      2246.44057287
      704.61853155
      6615.23285804
      6461.81261061
      576.03871758
      479.90734798
      7411.16862602
      1860.58077409
      -24148.52814249
      1117.81627375
      2567.26801919
      6695.31329911
      4779.30352681
      12642.26014584
      13894.30409168
      3442.99688190
      -1544.82286075
      2721.94864240
      4710.85383526
      -310.49632361
      6124.42419400
      3590.01520825
      3729.01436329
      -1116.00474360
      188.23976461
      5125.07263480
      4507.34906020
      -880.64842201
      3533.91735258
      4044.48782637
      1985.72758520
      695.08583687
      275.04064148
      2334.73424122
      700.27438313
      3544.33548044
      6033.02073973
      998.27392406
      275.27754051
      2774.22109892
      -1746.93712898
      5596.40655991
      968.64199587
      3487.77872956
      2011.94366589
      8526.99370102
      4248.54552682
      5270.84218969
      8719.08506202
      2776.48179553
      6192.80061076
      3154.86133670
      1669.66341356
      -750.06537459
      -3088.82577156
      -1290.74073777
      -1082.68648438
      -4027.25033182
      2022.60252036
      4451.02337894
      -2556.84603292
      1115.47894469
      628.86635915
      2488.93344669
      -406.70889055
      9316.45781421
      4770.08438390
      -1424.77325337
      -6015.01001583
      6792.05531585
      -2108.30734048
      1093.15481541
      4319.20396278
      6017.28507493
      -18716.99888393
      1809.67666259
      11963.58298906
      10311.92834647
      13709.52269995
      3417.38055014
      11403.49226972
      11492.33360525
      5772.03576914
      6096.84876980
      3203.33477741
      5973.68087294
      7076.46717701
      6481.75670001
      4252.30003265
      5922.00675178
      2316.22659958
      2780.47170982
      2461.11328928
      7322.42694519
      1175.34077371
      3326.03773956
      3340.49397660
      510.73210966
      1835.98071691
      4774.95292996
      3772.47949099
      3542.43178481
      -491.52904333
      7534.40496431
      16022.40708311
      5511.52262098
      4400.23505281
      3407.32603083
      7331.91383611
      5921.14635005
      966.80284477
      -695.67190141
      -932.77200557
      -7331.02139579
      621.70466342
      6268.16837448
      5281.66187697
      -1748.30830938
      3905.94972376
      7124.10705498
      5071.07701743
      2674.82745453
      -2048.34846644
      961.61671367
      3615.91604209
      5986.46099698
      2916.49566650
      5151.13199828
      2926.99843556
      1719.64918726
      4004.75419028
      3098.16549886
      5185.37947799
      460.41182750
      1106.89155599
      -135.48285395
      4115.70285186
      3856.50333725
      2806.67514507
      107.48128006
      -27399.67254656
      6738.74529031
      4791.04707115
      7038.07380458
      4212.49906947
      7176.36761593
      8241.21650826
      -461.30227266
      8711.57578300
      3117.77813730
      5420.61130476
      3924.47200753
      2972.31322936
      6335.30939916
      2448.21267666
      2640.62460792
      -1440.88802375
      2368.37178714
      1851.49981645
      -49.95734641
      1326.81043185
      8976.96683400
      5029.74937648
      3638.30076009
      2906.69665145
      1749.96052378
      2743.61531750
      1911.08324298
      2477.83379752
      2874.07484484
      951.77637901
      2255.21501291
      676.57640332
      1135.40229320
      -13.07326246
      869.28237399
      676.30901156
      -732.93629018
      275.50883797
      4090.85813894
      2083.47587906
      3460.84359868
      602.85980637
      516.27978781
      2020.03209328
      400.18913758
      346.62799544
      -101.92050889
      1201.56064104
      3661.94914861
      89.94266373
      1845.38474829
      5438.97638962
      1069.14776248
      3898.05896834
      2111.09572281
      3567.64647335
      -2038.92836678
      -651.40123854
      -251.85850848
      -1912.59549690
      2560.22551644
      1681.28801379
      1060.33270117
      4.43279314
      2354.70043523
      -20980.90566408
      6868.80177831
      5676.03983007
      7545.40234846
      11984.43304213
      11249.06480107
      8510.45260412
      6730.99397070
      4465.66953135
      7345.80276628
      4211.94592305
      4303.74523620
      5391.99668377
      7352.81376486
      7802.60348065
      5221.38175484
      11322.32251783
      1935.81114516
      4540.83824272
      7349.48703157
      16695.76877414
      3040.85667599
      3133.61355581
      440.99609436
      1420.46355628
      7720.04496687
      4299.87683835
      446.18383085
      502.56611602
      3755.65232722
      -107.78481450
      3142.58916097
      1068.69789429
      -2319.76914973
      1623.78502974
      3637.11351443
      232.47490534
      4014.32147895
      869.38490448
      1766.43545034
      1867.16294765
      6926.59027779
      4893.22913152
      8218.28090040
      4893.28862063
      4616.65854218
      -702.03349488
      3889.16763585
      145.50436301
      4794.43750026
      3478.82888677
      5571.89464463
      6083.33947179
      2348.14935231
      473.15700340
      1685.80260177
      1114.59704028
      2824.18645094
      -411.45452032
      2569.78401874
      4939.27387140
      1466.24950934
      -309.04987799
      -3142.01439637
      2356.68969351
      5061.49709165
      7053.66260471
      18871.09851878
      7695.86592735
      18501.54906142
      18887.11802761
      26470.78607943
      11163.28387103
      10456.37123978
      6036.15673284
      6745.28972083
      535.91831941
      7242.28950757
      3768.51576859
      5994.09842238
      4034.73450650
      2748.26225533
      8819.94266267
      3060.87482267
      5410.19985931
      3578.93028422
      -1008.21527584
      1431.02124496
      17938.18672010
      12126.84837617
      4127.53996716
      2738.26664844
      1571.82902919
      14594.99241273
      3513.33323108
      845.95705671
      2068.65149309
      1764.05364134
      6734.48980382
      3037.07601317
      3735.77792154
      1161.02818936
      8241.93690526
      2667.61804452
      6773.69453392
      -374.32780891
      1696.69598069
      3853.97767813
      2736.94143022
      1494.47785604
      1730.26361200
      2256.63357028
      -2733.51015681
      2081.86493917
      6885.48818120
      -1435.57543166
      -1542.39543975
      -1968.69814673
      -1933.32490368
      5370.94272127
      817.46325005
      1205.96703805
      1196.86028195
      8553.17047627
      3235.39600732
      3054.93000028
      2564.17642467
      -44.01476055
      1159.51777735
      316.37554434
      -1261.04036953
      2145.74229543
      19012.30047731
      7430.71373685
      6102.28116926
      7936.45620830
      33485.62256044
      6544.71705272
      6058.94697957
      4765.38348975
      9366.92061786
      -1424.79422658
      2701.77495035
      12926.27889601
      9119.43473528
      4974.41877744
      3742.18393737
      8380.36737282
      5540.58351736
      11720.48927076
      2730.01916235
      4721.56790485
      6676.75012562
      4926.39004776
      7275.79866992
      4863.81688365
      5705.24875849
      3437.44342079
      2959.19186228
      5682.11450235
      9863.83144872
      3527.17636266
      4231.67454913
      5066.15560806
      6582.38781927
      -1347.34880726
      3972.86084926
      406.73180962
      2233.60965416
      3873.12635312
      3307.74016822
      2884.63496130
      2112.25405333
      2554.88583572
      -901.25396124
      426.68927552
      6722.95097867
      2165.76658513
      -1353.67143031
      -1371.07232062
      -1991.62293357
      964.94475487
      -3341.26954311
      988.05760016
      1346.20798680
      -672.43434013
      1532.88371882
      2388.53017792
      2207.09563713
      1971.52947455
      4505.12372803
      2216.25202602
      -901.60966904
      3523.94213430
      2141.25662346
      -1155.80923119
      1299.37295285
      2072.90014044
      -21336.21804100
      9641.47145986
      10360.99078619
      -7555.28626871
      -2216.13204432
      6298.41378476
      9837.94412274
      11427.08440701
      7696.56275909
      5238.24960095
      8210.74745423
      6756.07728643
      21008.94899939
      5251.72250358
      2214.36976287
      4663.00832549
      3089.94466219
      3642.02822056
      3783.98052432
      1911.01868339
      4209.19675474
      4061.63559622
      5543.99053231
      4882.30796743
      6763.17579015
      8510.48962359
      6503.55649508
      5124.94661472
      1704.26238543
      10121.04179991
      -3583.36181226
      713.93141434
      498.42437258
      4869.26478152
      7422.83049785
      -3723.58820330
      6543.29084312
      1647.14089176
      646.67730908
      5935.40207955
      1633.37880390
      1801.82146365
      3234.53770401
      2919.67127775
      3097.59231265
      3647.35298833
      -735.63632496
      1367.75307441
      3005.60605535
      2828.48198518
      3736.36065897
      1030.90438677
      2026.63898783
      4198.47837393
      1803.23547189
      2026.41238150
      854.60601186
      3166.90134841
      2493.56687998
      -1114.58456716
      -1789.40806750
      746.65655115
      -545.68634723
      2306.73259466
      451.96605541
      4239.79062291
      9751.67392486
      -16161.55176151
      11543.81487492
      -8738.22912901
      8505.61913256
      7219.33786254
      4318.45859854
      11186.16912414
      8901.21568185
      11789.52048074
      4213.88099196
      6138.18342783
      2985.87694415
      7576.92402311
      4316.46593047
      5632.69241603
      1971.79290597
      1618.83446050
      700.06398169
      2886.79507442
      3850.05302213
      -6709.32813178
      -863.14994237
      1250.02447905
      6904.52560830
      3184.07733619
      1721.63279978
      1512.51905485
      -1737.29679104
      746.79498453
      829.17170649
      4238.63043843
      1221.76095517
      -29.92599621
      2426.25458099
      11579.88387537
      -4018.64094794
      359.47889888
      -535.31258830
      584.91970074
      -3686.09004787
      2895.03619937
      1919.18669331
      -49.49124347
      5510.68532497
      2234.23872089
      485.39295010
      907.58503761
      -2952.14476809
      1387.98012040
      2141.40376209
      3319.85191663
      -551.53347307
      1949.30864976
      2583.39612573
      109.00372388
      2089.46817300
      4656.81687147
      1814.08218788
      1852.26595694
      3.90172485
      -1505.50852604
      1593.95879651
      1788.19362356
      1540.50299442
      3232.43179034
      -18378.22992136
      -5122.03323266
      960.39565362
      3642.40026416
      5600.40043609
      7194.01150759
      838.35875129
      7240.77053318
      14971.36025407
      2060.97744704
      22362.37963587
      3654.83902327
      6158.86332632
      15851.80267029
      3727.73969351
      144.66905203
      1975.26437863
      1284.27975742
      -577.56650631
      1028.15626838
      1531.46610742
      4085.27548565
      -1953.27340002
      2373.12876948
      491.37603313
      540.59704468
      -1305.00426115
      540.65263562
      2458.35613943
      -115.00009775
      1437.83946026
      5502.47946235
      1113.17392452
      905.91978666
      1101.32112534
      -1838.00675496
      344.40541203
      2162.86093177
      -54.69396587
      1428.36869337
      -2158.21511422
      935.96486026
      1270.09474869
      1245.70249576
      1399.71209671
      2227.14965936
      192.06866134
      5510.97964073
      82.23296908
      1262.81819820
      4010.15973022
      1463.72121678
      1216.85135185
      -1462.27363077
      -719.09656933
      1473.24792521
      1964.54744380
      2161.02049150
      1413.90483008
      -1121.11762527
      2963.97256634
      4577.98271380
      -1231.89288838
      868.77142024
      1619.86800808
      399.34339106
      -15857.23209146
      11308.12514108
      7909.69356861
      3574.25756502
      4571.18661449
      12380.16276580
      1425.03014417
      1338.60650481
      -10264.60993809
      10188.02226564
      20333.32186970
      6013.43660633
      14825.45534827
      9094.93122068
      -2306.36793419
      1581.98578737
      2344.53471379
      599.83171054
      1069.12790855
      1014.35995974
      1610.62354296
      -4298.56310641
      1504.93973275
      1144.15753336
      -519.93476180
      2245.58849866
      1836.37039891
      1594.24578669
      280.10450230
      613.75232961
      -725.03842365
      248.39006702
      790.10159160
      2009.18398758
      4855.71716576
      1372.11680293
      -278.34392387
      -233.82456332
      1709.65149289
      -2426.52941267
      375.97463602
      117.02980945
      1522.68831817
      4227.86223105
      5454.84207656
      5736.57946036
      3862.17214972
      2861.23560055
      2816.92532643
      2230.68539815
      794.78356988
      3921.14888021
      202.24516577
      3471.55505116
      2019.35993047
      410.52926201
      891.15819458
      1395.92676982
      4302.63363613
      3945.35847929
      2175.30790458
      148.53920248
      399.61361441
      -349.46508476
      2222.62626138
      2897.59337574
      -7670.53798646
      4215.74400106
      -7079.65675806
      4099.91099307
      6983.09585184
      3718.03178535
      2900.35223956
      2959.91332755
      3085.65615340
      2800.43498455
      1910.41234196
      1621.41537175
      1390.52101321
      572.81961948
      2477.80775905
      1218.72315838
      1180.13134863
      2093.86875303
      3183.80428160
      2369.29075615
      2106.45189266
      2003.26381731
      1065.15561488
      1660.36723943
      2209.77593827
      2335.14373181
      174.94946813
      1919.74237804
      2283.98233427
      -232.28808727
      30.45351919
      1019.97010585
      766.27110408
      330.42245320
      198.58455759
      4122.06973074
      -1927.82187829
      -71.60397585
      2116.91499518
      589.93916666
      -368.70099588
      271.52467418
      925.02842705
      -4919.28422276
      3006.52928037
      1378.59226362
      2873.66112657
      2326.21857916
      141.17112500
      1388.36306040
      216.93092267
      2011.40264151
      -371.65967338
      846.32960605
      6506.83171454
      1767.88251488
      645.85287606
      3781.61798575
      4369.41960217
      2147.04502495
      -180.46757844
      -2142.15008977
      1801.37680396
      3693.15760023
      3365.41863847
      3766.17982006
      -7886.36499036
      15005.70629317
      4796.53162550
      -6702.38185457
      -7302.24089820
      5285.93340368
      2174.22535341
      7961.10266165
      3389.99872633
      2880.69485398
      1794.31024877
      2610.35152079
      1974.73694191
      2911.88897832
      1310.24434251
      1948.76752288
      2373.77641279
      226.15714251
      1229.57348185
      1312.63381014
      2265.88745345
      772.66355056
      1745.69475619
      1326.42038266
      2.72341646
      306.44598589
      53.83307080
      381.48242097
      1324.08742439
      3649.86109444
      701.51581692
      208.62969985
      337.07429420
      62.01759521
      -213.85349383
      5533.31298438
      1217.47691138
      -4767.59318004
      3480.62485491
      479.67280391
      3867.21087202
      7251.14083769
      -1415.59092556
      571.50190727
      -582.56795200
      -4.96017276
      -485.38269398
      771.24876879
      -500.62884272
      642.42000378
      1038.54811087
      -318.35219094
      322.84054031
      2084.70185230
      1120.91598363
      2377.07732999
      2050.75086519
      -347.47048771
      962.06701845
      555.02173444
      1346.58193103
      99.39831593
      1675.40093687
      2554.37379306
      4914.39713371
      632.13123502
      -626.34391990
      -5545.06680360
      -27919.17237965
      6380.05927911
      -8077.53193685
      1903.02111584
      2978.84138182
      2990.32861355
      2968.49818420
      2309.72299869
      213.00991882
      926.72746916
      1567.84697330
      1289.88134785
      -518.28478809
      1920.23408542
      1322.81762637
      -1364.96945735
      39.09532714
      2170.96187741
      1015.42303087
      1759.32708792
      -77.87374274
      -611.63557105
      -34.29972864
      1689.92518696
      1598.67981207
      1570.31894242
      1986.99341699
      1987.34017316
      -2308.50858656
      -340.71507335
      4691.54748838
      3066.84947116
      30.74685866
      1559.94065515
      131.24444337
      615.95364756
      1299.91307928
      1140.12685803
      540.73527043
      -5689.13259137
      1936.19834228
      241.34594966
      2157.81900737
      -3012.12362610
      -527.53488296
      638.05532154
      3343.59066013
      1146.62379151
      382.60129848
      791.56109895
      1148.42747959
      -1824.48674504
      -148.69781501
      -386.45634445
      1164.43922130
      -5900.69392178
      1321.34706553
      500.29035124
      327.15020075
      -3061.91552805
      76.33804552
      -2400.58966247
      -3371.80283955
      1218.80763287
      -28338.34729544
      -4189.61515996
      7288.13153455
      2909.03665140
      2904.29808537
      4981.70793143
      3433.56755675
      2275.93314759
      5421.46883581
      810.19021754
      3792.72714054
      5142.56160229
      1135.25345603
      988.77477113
      545.19568451
      1008.95612577
      1614.60453504
      1324.65786333
      171.16059498
      1177.07982505
      2515.37414198
      909.27140848
      3659.05565521
      2878.84036108
      3043.62504449
      879.77687601
      1644.24223922
      695.49189157
      313.23114549
      2081.67821079
      -260.85554960
      2258.51760632
      2185.07859410
      2381.05468947
      806.79348601
      179.10366203
      -1498.98495817
      1709.08561148
      2215.39432551
      517.42190307
      1874.38402027
      1890.30728980
      993.51767358
      -1038.08659786
      3774.67962752
      2518.74622131
      1392.97375227
      -450.44095780
      2305.96679637
      555.91580215
      659.97028569
      2355.93577213
      -1881.40717939
      -1251.13122007
      662.66862194
      1378.14197958
      4172.06938778
      1254.57168206
      3692.14795205
      3390.07158047
      -2038.45517781
      -184.34642123
      -2307.26207697
      4136.16553028
      3771.87937715
      2035.57517132
      -7806.01223185
      1171.03107893
      6176.87588397
      5699.03145231
      2980.26827355
      2534.10611437
      2904.92139964
      4609.38782057
      2716.70637786
      -561.51144593
      1602.83185477
      579.25536817
      -307.61383545
      630.70065169
      1057.58623409
      475.38998331
      1034.60526395
      1999.19564878
      1264.05152599
      1044.21982716
      1353.80741517
      690.29575652
      1346.77274107
      117.65278964
      1283.41447209
      4014.28642712
      1701.70668286
      1979.17587081
      -190.52029114
      916.66973592
      1102.93703105
      1754.89021737
      -76.14510228
      458.14740200
      -158.89456652
      554.19194111
      -439.78937232
      458.83188055
      927.47047656
      -152.64509408
      541.61048386
      198.22008100
      599.56863879
      849.81577236
      28.51039665
      -79.66807981
      1219.13005927
      1706.82960177
      -277.68761738
      481.33057531
      703.41145358
      -1048.84002808
      -395.19751650
      1300.67775700
      -1291.38589331
      157.40181676
      653.11926338
      10032.68367893
      159.33325093
      -1861.33594935
      525.12345428
      2424.99057176
      4134.06406436
      4035.14908409
      2552.12945366
      -2966.50089550
      2096.58962252
      8585.59311403
      4593.56852223
      3231.95368861
      3373.63901544
      3844.39663286
      2226.23713539
      1499.42820865
      1351.47639648
      2573.41899822
      1171.88281986
      1349.52760520
      -468.43234970
      -926.10406949
      1064.84197036
      950.90289885
      -1193.82130036
      1615.93490773
      1757.22417465
      -348.08556829
      810.13587431
      401.41813628
      4406.75678842
      2615.52351836
      3071.15847693
      2156.52354118
      2098.78512451
      2421.31873882
      589.83840401
      1129.98653860
      2142.55316990
      1263.53951769
      1286.94572222
      -324.55841293
      839.58425112
      814.93025305
      -2345.59010875
      -612.85457314
      1580.82439065
      -349.22315750
      105.28434903
      2652.78487721
      199.41052410
      -723.84517994
      -1781.77418453
      -785.47876826
      -1489.52819247
      -203.72965608
      -3073.61443006
      366.92389290
      1720.97863571
      916.44650597
      2923.83964702
      -1323.84445057
      1090.27522775
      242.35511895
      520.81934436
      -469.22784902
      -859.90062288
      2315.17164077
      4303.19011621
      1797.20620058
      3362.54539305
      825.85541271
      3091.84771455
      5524.72830715
      -30962.88851667
      -5678.75686574
      2663.27682520
      6534.34988232
      2128.18892948
      5156.34787155
      2285.61305453
      -348.42151063
      1057.95283929
      3317.00958058
      3150.61005437
      3747.93926834
      3551.90812619
      6761.40504810
      798.91001601
      2086.94121233
      2129.90655570
      1363.68755797
      1617.20775150
      1879.83793647
      1197.77149803
      1165.20502742
      2421.23443464
      1879.06112092
      2338.24594976
      2147.32058906
      3570.54948799
      4292.50465624
      1061.02433213
      581.17258833
      1170.30934420
      275.52949661
      -332.54838609
      1615.86770858
      1714.20710474
      2796.20322008
      368.96095515
      -172.71474971
      -4167.27748686
      -1974.14669694
      -12.56347837
      665.87197834
      -1942.66260937
      -94.57694192
      -255.32318901
      -264.78076392
      -1115.14192106
      -196.11919935
      -338.04422641
      2984.46208556
      654.76629351
      1345.30210360
      1779.65371565
      836.66542526
      -1460.78927665
      1733.37581797
      1930.64086034
      2295.33937756
      3086.46547793
      -1452.75126507
      1312.76763948
      4439.17936377
      3673.20089399
      2538.07428575
      3198.82848349
      703.98455666
      -19317.15986296
      3439.32525334
      4007.96470017
      3471.35391226
      5823.21590978
      4029.75625575
      4300.29804171
      3741.04562091
      2837.02317687
      2761.59788165
      4482.01254181
      2429.03698633
      1121.13304935
      1807.31528714
      2031.15320567
      1743.46580755
      1983.91903519
      2086.67400997
      2237.58633565
      2211.76002823
      1580.47117751
      1028.49181955
      1489.63443296
      1212.15516450
      923.69601510
      1355.73477326
      597.97435128
      312.13679797
      -1148.11105972
      1017.84936975
      982.53301380
      -1980.18901577
      1453.59436274
      3518.38593432
      1317.72647375
      -441.66165895
      -42.57277601
      565.54291585
      -521.43902498
      -1611.89572434
      578.11278505
      6103.87477959
      1269.28860390
      945.90119640
      -1920.44740485
      645.43092739
      -295.28721242
      -1088.11895810
      -953.98521865
      -82.94455674
      -1138.77562621
      -943.17647928
      1879.73604279
      2447.62231550
      -301.93120361
      -381.52997048
      174.81144819
      -583.91509291
      2565.94707284
      1507.56822197
      1359.74603877
      1967.96668907
      2181.65169472
      3250.50304688
      3222.22778703
      1454.42708496
      3211.75720808
      1009.27610082
      6869.79132548
      3706.19176572
      1885.05051483
      739.61721567
      3395.81065983
      1259.75716865
      2428.35089675
      3018.96238913
      1433.11060787
      3005.78111501
      3107.02373841
      6081.00526790
      3134.39261216
      1956.27156357
      2086.95168318
      1677.67256513
      632.16237791
      718.49017459
      2113.07414919
      203.01833670
      2150.53727188
      685.80775790
      1484.45659368
      1793.91035699
      4617.62689769
      2831.07918418
      549.92333363
      -658.02531477
      987.54793374
      520.20660478
      233.60811015
      1297.82311756
      1549.62725387
      726.52051386
      1956.01408503
      815.73114957
      28.34355454
      629.58196645
      652.66059533
      2082.70278277
      1221.29494669
      871.65720558
      775.89987979
      189.09917061
      745.48183594
      -647.59954202
      425.46281366
      -442.12505392
      -608.59260696
      -1129.34831383
      699.49081838
      1984.54105627
      -1068.83601134
      -1197.42348352
      3420.12694144
      -13100.65566157
      2919.65422207
      2267.56728611
      1957.44882485
      2243.04167404
      -416.01468481
      5223.35814385
      3078.33221822
      -22.61431408
      4415.26538154
      1351.07896724
      3041.01828417
      3933.91692316
      2778.73287623
      3098.53354406
      2646.49510474
      2919.46221380
      2626.35690430
      4480.82119681
      2105.79872027
      758.80228462
      1940.50024091
      -1047.65375946
      701.35775895
      1269.89010533
      801.81997376
      1223.95247168
      1415.79656240
      1807.10723320
      1089.63285921
      2284.59891647
      1928.98988241
      765.74605772
      1346.34012946
      2339.71940200
      6150.04577595
      1802.08273141
      4026.34501604
      2106.46603830
      2969.37064774
      1307.12373882
      2267.79859538
      -243.95881555
      389.56000593
      1706.12126036
      2132.35232265
      994.25660296
      1285.92399064
      1246.50237062
      290.75547698
      1702.16894560
      1587.61416111
      445.23267440
      -325.00925516
      -322.20854366
      -2045.26986614
      -920.73243086
      -397.82865065
      853.22327534
      338.27406114
      -337.94873148
      136.48469965
      551.37034797
      1914.15459496
      2010.54637643
      2978.13336016
      15189.18175889
      424.80786927
      3948.56156731
      4002.48790654
      1143.11149834
      1849.70533743
      10270.87938446
      2442.94719320
      4304.67768287
      -40161.08078057
      4506.86032662
      2983.46072298
      5289.98162539
      1232.66040113
      3231.63357006
      -136.20339383
      2164.45161824
      2150.06141663
      176.18986324
      2980.12738630
      432.69378580
      1443.54092550
      3008.73075982
      3984.08432713
      1439.82975122
      2869.61974061
      3090.67717770
      715.28841410
      -37.85168019
      1201.11724540
      2005.50986256
      1288.57055810
      1580.45473317
      25.84987997
      1070.07652495
      2700.59322114
      2183.57787159
      1119.15929111
      28.27974446
      966.17339625
      560.55381435
      -2425.81038408
      2719.93989983
      142.33628884
      4548.63085864