<?xml version="1.0"?>
<VTKFile type= "UnstructuredGrid"  version= "0.1"  byte_order= "BigEndian">
<UnstructuredGrid>
<Piece NumberOfPoints="5123" NumberOfCells="5123">
<PointData Scalars="Pressure" Vectors="Velocity">
<DataArray type="Float32" Name="Pressures" format="ascii">
      -61.94441791
      -17591.83905358
      -24091.55546959
      -25493.28008765
      -24261.99582305
      -28560.32273856
      -29272.80775739
      1554.12486537
      -299.10108418
      -23569.16128140
      3357.99634929
      -22140.43487678
      350.34003758
      57.63015295
      -20993.64946475
      1659.03219278
      390.01139932
      -27025.94562458
      -134.85202933
      -198.76631289
      -227.65128466
      -243.15613594
      -642.80923255
      871.16964429
      -2032.73561505
      323.96353328
      -692.55525971
      -1096.55471676
      -1421.64871970
      416.18023518
      183.58521507
      32.74631574
      406.40217863
      188.59246112
      -1337.07482886
      -241.13088384
      -155.58861328
      13.45906269
      -149.15756851
      278.06139501
      506.41976169
      -271.91607086
      491.20601827
      195.92135712
      643.56159122
      -722.67463889
      757.38234252
      1816.18681497
      552.11294995
      528.01229513
      -1669.90270803
      -75.61078508
      211.74213982
      603.98708489
      622.12204512
      -94.10863869
      81.98074907
      59.01207435
      439.95535056
      75.12505470
      -810.06948601
      578.78109767
      2605.84335881
      -168.84447546
      6596.65476390
      -775.18088216
      3325.69639902
      5389.50317142
      308.30524919
      767.10776400
      391.69246575
      575.50340408
      893.75722152
      1347.35045571
      1384.19004883
      2098.16401010
      1195.87920300
      790.68690882
      445.35053284
      -175.42790058
      -377.67568661
      -317.18708916
      2918.83621517
      -84.27224065
      644.22224635
      -219.90022705
      3582.56808904
      7566.36357408
      -924.23194289
      -2002.29893443
      1029.54957462
      746.81527786
      -909.88539063
      -2357.32451663
      -6020.21603955
      3866.58748749
      1027.29423538
      -470.88562211
      -351.59423965
      -32.85472105
      -140.10528242
      654.26103882
      -125.14118477
      -365.90569814
      250.04986204
      -677.70071748
      -174.81252232
      412.93330236
      -113.50545356
      -213.36580233
      424.28119137
      289.67649933
      288.65516346
      455.52061308
      625.42745566
      1044.27675796
      -664.69589056
      -1896.88887158
      -2050.68810741
      361.98767464
      -149.26838926
      177.11603654
      1026.12179473
      519.32481478
      941.78695009
      3966.40539289
      1741.83993003
      2230.09945686
      103.35796185
      -14287.68943769
      -6537.18015674
      -10639.17735066
      -24148.52814249
      664.42898766
      804.21250892
      637.14504345
      849.96589271
      -2822.33747059
      2406.57275468
      1993.11437575
      1492.32521060
      3970.93754437
      1654.44817248
      1518.42763313
      -1951.69521422
      -654.25617566
      557.68571446
      -695.50800009
      -159.14082054
      967.36936640
      -237.47111261
      -290.67923583
      1986.58862108
      679.96234897
      282.97464193
      498.63058462
      1469.87340503
      77.05165698
      1699.53253571
      70.16439272
      4551.67652896
      310.90365832
      177.74865434
      765.41823340
      1678.01754056
      957.14815011
      30.55446776
      442.19200002
      2134.32898915
      1008.34062332
      -3029.46713726
      -191.46568841
      -200.72039732
      4380.30579527
      219.03580792
      -1121.17336179
      -656.65659862
      793.62884570
      -1939.87279678
      -1087.19719196
      -1039.43697891
      1030.14034355
      -2281.27292364
      872.75939284
      40.98664722
      301.07662107
      694.55292143
      206.49860215
      756.15337751
      439.28509742
      792.84432440
      -84.09144693
      -2048.76344694
      983.23168007
      6815.92335562
      5417.16423287
      -4309.89152140
      3490.47465622
      -18716.99888393
      1186.04397670
      1195.74098355
      1284.08322747
      4780.17470599
      -2486.16742391
      1811.42294982
      1314.12045641
      1520.83621373
      1832.92879564
      1945.03041196
      3732.90461653
      243.70004787
      2776.39285213
      -562.72314364
      1174.24822088
      1098.33664831
      307.39912542
      905.74742916
      757.76397175
      208.62383464
      664.55941775
      405.80488911
      95.80112101
      -139.78014495
      407.24814471
      291.68364387
      862.59694177
      942.11969028
      1990.63988549
      1565.38856533
      2903.77894985
      3501.43415873
      -33.12999430
      3822.47106395
      -2087.67675305
      -1479.10216886
      -813.09700613
      3362.66666978
      -1412.15753816
      1897.62066968
      -1351.59668678
      1391.51488229
      -1719.13641167
      2518.35156236
      837.38392092
      -40.27503482
      473.47874415
      -650.24664652
      -987.49110379
      1191.46480277
      639.19016344
      972.35519771
      922.75792836
      538.17928320
      827.75376632
      236.51776570
      2217.18176906
      8040.83918063
      5650.16898820
      5521.12842415
      -10259.62730085
      2947.64533358
      -3699.39763506
      4207.52730735
      2024.51222768
      -27399.67254656
      4257.06229881
      3209.24715530
      4189.07647719
      6456.61942972
      6633.62117064
      1801.56883482
      1459.31641049
      1817.63523888
      615.87037837
      1086.52063713
      643.86272558
      104.83743475
      903.14455749
      -341.93307371
      -322.35136462
      429.41608194
      -53.40135465
      340.64506424
      506.76542723
      342.39525792
      902.16383095
      668.97207780
      -67.85509470
      205.40918017
      559.39675682
      -596.65109008
      150.88246245
      84.46625318
      153.33740634
      749.67533922
      1792.99063366
      2515.54709904
      3267.24134476
      -1746.67075095
      -876.62079993
      -2333.95543402
      2577.76352546
      1453.94219447
      738.68628300
      3021.93307669
      2118.97365055
      1585.71612350
      1897.26957648
      1151.75892256
      3194.21963345
      -303.54621189
      980.06093262
      3680.12901015
      991.61010823
      1536.80220064
      1208.83248573
      1182.70156114
      796.26422222
      3432.82971485
      2175.40619883
      -2843.29582051
      -14017.58773653
      -6995.05654570
      -2327.10449880
      -3144.76055293
      25144.15604692
      10008.93467345
      2266.47870034
      6636.68289372
      3657.02735274
      -20980.90566408
      7276.82974326
      4810.02699790
      1670.66434796
      2248.75034619
      433.31683960
      1490.74068270
      1996.98312860
      268.32932721
      856.03310751
      2360.67172133
      728.33443385
      378.80376198
      1092.53227142
      5929.11260074
      772.32950735
      1863.15426815
      212.97508390
      1051.60383158
      2250.61511686
      1713.25535299
      984.55390276
      450.65815430
      -528.11380302
      3836.01618183
      3688.85650391
      958.19968390
      -6100.40104208
      2011.96939175
      1937.31542867
      -5849.50118144
      2212.81030878
      737.33319081
      358.60717894
      -231.22536574
      587.20076880
      359.43051612
      287.30143737
      1628.20191401
      -811.27744510
      1852.69536504
      -689.79150555
      1206.64633090
      -787.35735559
      90.33869026
      -1414.48724491
      1067.52620487
      1904.60469515
      999.54375394
      1492.25532199
      1578.89865035
      -380.10458630
      2067.58327327
      1101.91983894
      7475.40806028
      6973.42623742
      11721.46925621
      16006.92120745
      -1577.43560592
      1521.11360362
      -4064.51276920
      -6192.38963185
      5622.36382878
      5406.77075873
      -163.26149886
      18804.70797689
      -1948.67689759
      6145.21590064
      1037.66535072
      4548.52121125
      3832.45450130
      -1009.72208073
      7476.51160253
      2332.08695996
      3871.62526756
      6049.52138468
      -1313.07585253
      -519.19595317
      817.42371475
      1546.18480870
      593.17287899
      2031.76396351
      5218.88989788
      1630.81707755
      1305.97854204
      1170.76669828
      1141.18623023
      855.51986278
      2469.96570574
      3840.46475776
      3123.07545622
      2398.72198215
      -172.15169032
      4139.55575887
      2229.11095318
      -111.79689541
      2773.15882387
      399.58101538
      6551.10714468
      -327.79783576
      -40.96855463
      -445.70373435
      3648.79033511
      288.77328593
      -276.67209882
      834.03449822
      3910.27480123
      4831.52682334
      1823.41160937
      454.29641548
      826.02522772
      4378.52730527
      1761.77974958
      2694.91391841
      4104.01906885
      2900.17136817
      1488.67061072
      90.86271457
      3205.21770937
      -459.53103588
      -1556.50360291
      1234.71123839
      1459.00566670
      7187.56276557
      3671.23184748
      -27.66240307
      6383.89933857
      3000.55394204
      3106.94691360
      530.21618105
      74.01706627
      6414.98751998
      4087.70314801
      1086.17415181
      2584.89966638
      -92.85604358
      5454.79674221
      3535.46736476
      4449.73261565
      473.94571387
      2249.04893345
      179.38958931
      5942.82786727
      2326.58488244
      1419.03851699
      3306.03029365
      -2641.59340575
      1004.38857559
      4652.47022319
      1709.54234478
      1662.09938904
      2325.05931502
      2196.14782392
      -609.99367830
      2073.83895848
      2367.01008753
      577.59600116
      3614.26423426
      366.53212350
      174.13124926
      4320.39291294
      7018.20234070
      2319.56151784
      1999.75502780
      732.09620217
      812.67004028
      2231.18151446
      1198.67928344
      1462.80741898
      2283.78115655
      -433.60138276
      1940.55451861
      5530.90975791
      565.65488617
      2276.18271789
      2509.88650038
      839.16041106
      1259.84607054
      -131.88281352
      974.13703234
      4624.58437167
      1987.86844548
      6280.73057635
      -481.15636489
      3169.34535668
      14810.25757554
      2030.09821112
      4810.53882377
      15493.20247370
      11042.23468548
      2851.49107980
      -365.13205820
      -1098.88480093
      2649.18218482
      3972.70500103
      2582.33370316
      8935.13538635
      2921.49647548
      -21336.21804100
      4239.86715863
      3675.95540736
      12661.46959252
      7449.35811175
      1705.45491354
      1727.26141943
      2144.80807721
      3345.84027119
      2491.86955387
      2065.21057684
      3723.36614917
      2075.06197505
      1227.64481864
      8164.80493659
      747.11518298
      887.24043549
      6594.11784888
      2670.98041860
      1879.08779106
      2645.88590378
      243.16427806
      9592.98087880
      4173.59217527
      3002.69631472
      13941.05678245
      1275.02527843
      2074.25443641
      3604.70943678
      2299.78462198
      10603.12917327
      4351.89710176
      3012.71656296
      7481.08343490
      6961.01774391
      2629.31418773
      3834.39439350
      2310.42165535
      4155.06560355
      3137.19093062
      4374.43931627
      5515.30639462
      3183.92867923
      -1581.24281804
      1565.95846660
      3427.64550846
      -816.62561551
      5782.38980002
      3061.64439968
      3096.67344928
      3665.25961815
      2671.05702022
      4208.18026448
      14799.77424174
      150.03712991
      6166.95135717
      13395.47402225
      -2749.94353146
      7403.41708556
      -6946.65193292
      9393.94947950
      3434.48255400
      698.40843590
      918.12289204
      -19832.92905158
      6409.76952682
      1618.76947848
      -16161.55176151
      3741.96141182
      -7755.78867284
      2304.58202066
      2807.58810908
      1023.40269152
      3267.64911805
      2556.25504084
      2410.55651689
      2345.02969929
      7845.71292193
      4457.23759832
      6528.05367206
      5297.75276187
      5487.58724334
      3659.03313156
      6228.13610138
      5260.20563618
      5123.63629502
      2340.33327156
      4737.16046169
      3734.41899121
      2879.79951586
      -207.68228927
      1449.75536358
      1399.96957588
      7179.66423658
      -341.56490916
      2365.27943086
      -2115.89175068
      101.90137399
      5394.88486897
      2593.47918021
      6221.81146164
      2052.03862293
      2502.05005818
      2047.34313927
      3596.00164864
      5152.53757047
      -227.96277330
      5548.75529573
      5694.35461270
      702.84637046
      5143.80616121
      959.19457886
      689.13960110
      2608.80483762
      2361.53416639
      6048.93640156
      651.92838359
      3904.38199586
      19971.64354662
      3020.26990080
      10063.90880597
      6804.02461243
      1481.20476490
      1734.30766108
      -497.62843267
      -1465.76303754
      2489.02866228
      2320.06526177
      3165.29445763
      1498.84918510
      15491.28956854
      2980.47713269
      -18378.22992136
      -4332.91006691
      2428.22439852
      1598.51234731
      3185.05246783
      1497.38158656
      4699.38738690
      4313.37877174
      6470.87437347
      7927.84443224
      1655.68814600
      7443.20442631
      5131.70953400
      11017.46812844
      7856.66152423
      4052.75134391
      4167.52424627
      3709.21497334
      7876.74399409
      4936.94846680
      1893.48582615
      70.99956335
      8057.61995786
      4771.04049413
      3367.81257039
      6482.93947500
      1212.99050814
      2795.48929153
      -766.31665479
      763.32110899
      14.88691386
      7643.29634359
      -1165.53312381
      5598.74035859
      2241.46885370
      1589.52979297
      10932.83205098
      63.83580309
      1973.38065783
      4481.23060352
      5115.71745066
      -1259.18785871
      3039.09982984
      -2266.93049766
      2560.74929791
      2586.66978343
      7473.44322415
      6466.27929050
      4209.22931621
      320.18143374
      3286.37346799
      5736.84384468
      5895.43935250
      2213.42569811
      5766.04450119
      6152.18880900
      -71.02735341
      6669.09118171
      5874.75384264
      5745.50780482
      5967.07639084
      -27.36214637
      2252.66888872
      3129.68967650
      1725.08174270
      2010.42080173
      -15857.23209146
      2790.54545541
      2856.73293278
      3521.94055831
      2618.41231014
      12040.34224211
      4560.46325894
      1905.66514187
      10199.18630513
      4441.34506474
      13999.85211594
      7086.24369509
      9273.39927623
      6065.29284517
      2577.59464723
      5830.43547725
      10723.33550576
      6143.22168282
      2431.99262979
      1704.91796468
      2974.78456832
      3794.62604973
      4268.61554819
      7276.71900734
      6102.58762463
      2200.06487986
      5422.57619626
      6622.40273933
      2253.96252251
      3331.60350468
      2028.69669648
      2760.98958873
      308.65682946
      1401.19002899
      4850.49476361
      9310.74355853
      1669.74571397
      6148.33804492
      1139.19271531
      1137.60479874
      -119.91776946
      227.20033777
      9341.19553204
      11943.15606094
      -445.52094719
      18179.85623583
      -7134.59413783
      1315.58487175
      3388.01912621
      1459.58091514
      673.04852715
      3442.96078251
      933.35798652
      1324.02062277
      1626.74881236
      2059.73739936
      3031.14479622
      3090.70981612
      2831.18186554
      1118.44861973
      -2332.28724664
      951.35782836
      2118.11487405
      4254.91765829
      -2134.02429693
      4109.19987609
      1633.59192249
      3969.85919187
      2990.04869412
      2999.68877911
      3634.02015383
      3266.09246364
      8611.49894552
      4855.73815231
      5794.58501170
      7769.02071200
      2989.88259470
      2734.54870085
      2957.42298567
      4780.82357295
      6027.61499971
      2170.39855555
      5280.69344279
      3816.55625452
      4162.96643607
      5212.88150972
      5018.03998388
      4578.68389379
      4462.51153070
      1551.54293496
      5597.34467732
      6359.51033956
      2514.66266390
      3062.16772720
      5311.08120708
      6217.92908402
      1240.09364277
      2634.85884913
      3258.82252144
      9370.29199318
      4909.07515338
      529.05843667
      834.64249197
      1996.18777148
      1809.35786006
      3517.05022007
      2537.45178556
      120.79612968
      -6.05983308
      1578.11482571
      2308.40134472
      2533.25207891
      702.40618545
      -2770.43092371
      4424.97321202
      -579.58193442
      576.51801327
      -1171.06190633
      5852.94946412
      -231.59141016
      2832.58224876
      -6.19390020
      -488.99464241
      1128.16625873
      1047.09695486
      -43.13852437
      -1361.60704704
      -1662.11254529
      4440.16623580
      6197.96519408
      1788.17111062
      -1050.11237922
      -7886.36499036
      1998.56575773
      -2839.84496740
      7420.93451894
      5753.97434246
      1198.02838636
      3971.68398604
      7634.18791580
      15377.48055775
      8277.67493918
      8899.07797283
      4735.61279101
      3594.77944611
      7179.14083133
      3937.38366406
      6895.12484701
      854.84088395
      1715.70865842
      3939.84450372
      2489.91518369
      7388.29147927
      3820.71631069
      -85.86207555
      4504.72696810
      1478.91797874
      2210.66043105
      -702.22544532
      2189.70807777
      1730.42124112
      12736.99190111
      5807.93445968
      4576.44974697
      1672.85279448
      5584.30929972
      2602.57095390
      3720.54858790
      5582.55729327
      327.47061541
      4784.20533729
      -4376.88700755
      9367.96735513
      4844.38097368
      1639.21173110
      -649.61560014
      2071.03525726
      -947.02023294
      608.62874051
      3118.69060840
      2620.19247233
      572.96004470
      -1734.42246249
      1983.01332576
      2229.56990068
      -853.44527824
      675.48838853
      2835.96454872
      3332.44191842
      1973.34046201
      -1348.38977101
      1804.82730250
      1686.30240105
      -911.21352608
      2223.30586966
      2638.96094892
      4270.21057110
      -2548.59655866
      2970.52627098
      11174.16384380
      13619.47885114
      9381.81149344
      8748.75090922
      3417.41658299
      868.42959206
      5256.80649335
      14856.88346197
      4701.43420195
      10203.54042527
      4245.73350068
      10281.28147815
      3861.90371430
      3423.14156766
      2205.32584762
      1351.15834047
      4687.31091659
      3203.48862281
      5227.41878301
      1835.00546335
      446.62141258
      1257.58773089
      11057.74313435
      -588.10033748
      9175.32211241
      2703.90468775
      5526.99737909
      10463.71558059
      4017.92842679
      6432.50550193
      1258.72943789
      2749.08183058
      3589.77553255
      2064.39612045
      1540.84741008
      4029.73991444
      2949.18802604
      4683.99598724
      -125.31969668
      489.71730909
      3792.00845969
      5846.25019343
      -489.00840877
      -174.47213169
      -8510.24976402
      4344.73692591
      938.96566573
      2686.12545345
      -238.53312664
      -3312.73608241
      128.64420651
      -1706.56303972
      131.60322495
      2840.69973428
      4384.59215213
      -986.73878147
      3389.89233194
      7370.07053643
      -610.97295418
      1342.04681361
      -3670.88814753
      6660.33921057
      2729.46028167
      1919.91732699
      -4933.64852573
      -28338.34729544
      7120.64879629
      2558.04450002
      1732.63280213
      15431.27878183
      3252.25501348
      13845.92715601
      4139.57487555
      4840.70843525
      9303.46131752
      9980.45489428
      11076.21193819
      7438.53366865
      -1419.92264374
      3432.75560424
      2442.02990153
      983.32755526
      5681.35680633
      1944.80202770
      5849.18867446
      2971.61408274
      3394.71531676
      2515.88304507
      6715.69702508
      2504.55177271
      1564.68494079
      4703.19202697
      7632.56395721
      3626.35160250
      960.10466593
      4545.61496449
      9703.62328956
      3936.47850342
      3526.67871198
      -652.36154694
      -1038.75436570
      876.64957522
      -1453.75170245
      -26.05225110
      3001.73127645
      1970.75178055
      330.79653691
      4477.24648482
      133.50715497
      -726.08166379
      3707.37858347
      1855.97771265
      108.49819714
      43.77266558
      1193.07509274
      1935.98290634
      -1488.11692239
      -2037.74941462
      4338.05221491
      742.37528872
      -6205.67405168
      1945.13966030
      -1401.65872368
      3692.77917010
      1698.34440629
      1957.69393409
      802.06082856
      -1307.81900454
      -1224.39287723
      3713.17814669
      -450.57394692
      3542.93054934
      8229.24512897
      10243.14766869
      6507.63988551
      5374.34346010
      15797.19844555
      9516.03361143
      9315.40941698
      3686.78174829
      2408.28262713
      5002.34521735
      1202.25129837
      7159.09340355
      3741.91639533
      296.65463406
      3430.78276457
      2601.71702281
      1154.40996226
      1409.88001241
      7425.78849061
      3937.13309201
      3436.82192411
      3352.59612927
      4437.56929203
      5238.98284400
      1730.73783224
      9576.70838265
      -52.14432071
      945.00814255
      2630.85063162
      2042.16487077
      3534.46754834
      3645.18467944
      2577.58023114
      2027.97091402
      2026.51859904
      2562.05661058
      1205.05667551
      2775.55466661
      6184.47857064
      6450.48095630
      4988.49248260
      -2317.80326529
      2599.31148242
      -711.83094219
      5549.36349758
      -891.29071234
      1538.00295130
      4523.35907525
      649.82355553
      477.00626641
      1394.78614541
      2490.63351542
      3157.50662513
      -149.31107786
      5934.27732265
      -2043.91974826
      -4355.85748787
      8230.60976279
      -610.99875197
      1940.41809853
      -20181.09661771
      15690.31447397
      11943.72794557
      -13060.49811760
      -738.95511816
      1578.82742935
      8643.16031534
      10539.16645265
      8066.78151730
      815.03325540
      6636.45980751
      5033.66096355
      2576.05689733
      3153.30192936
      6517.08725916
      2819.48502061
      2103.90844506
      6216.70779590
      3113.81588757
      4759.46338770
      1790.84860375
      1141.19360151
      2077.60581381
      1127.90899931
      2956.24276045
      2824.33224856
      3981.82022518
      1441.47797783
      7527.30530028
      5550.93363087
      7465.33164502
      2802.75853814
      3558.42570535
      2891.45045774
      532.57030465
      2003.38098048
      3576.61890606
      3421.05471804
      3063.56877934
      2177.16324909
      2470.71342653
      1722.94662104
      347.71726799
      775.00069584
      46.82218470
      557.34683538
      505.64232640
      556.68036209
      1039.97170934
      1779.32413356
      1273.92841694
      -1015.89501600
      2845.31753910
      -2690.70248031
      2089.93185004
      3019.83221781
      575.98477160
      -4091.14282630
      -255.25668385
      -3420.59581626
      -1801.84344491
      -127.20149953
      1479.17547098
      -1304.04300370
      853.68595363
      -2610.35179498
      11344.40866643
      44.76759221
      -1641.97401060
      6283.94131444
      3262.65673034
      -30962.88851667
      -5678.75686574
      6128.73795464
      7796.54778064
      5533.46374712
      4575.27927944
      4946.23081978
      6181.69722568
      2184.38055454
      2522.63502358
      3035.53948347
      8333.86752582
      9204.97451496
      7103.49045876
      2075.45184013
      5877.19421734
      7257.71407549
      2618.64129237
      1621.98662774
      4341.86974473
      1878.86392888
      3755.42760921
      4049.43610705
      3011.80037686
      2928.78098053
      3660.47497753
      5887.34605921
      7280.63126066
      5490.82937994
      2018.87144280
      2972.75418349
      2644.72473289
      1711.02589937
      2801.48596129
      5215.69477031
      1842.03499864
      2060.61582298
      398.92652541
      2028.22878809
      2198.03174985
      1101.27846534
      -101.93505523
      1917.13848147
      2799.93754045
      1690.87146734
      737.43908888
      4217.61937003
      -305.12499361
      -3270.20379890
      -1407.27497252
      -1193.12661391
      -94.20373484
      -5227.30352999
      1311.63664283
      795.97749867
      1535.58208252
      2193.22310945
      3944.53469221
      -642.75168538
      -1108.55129296
      20887.23923057
      26570.82620681
      16051.35645284
      -4140.68430201
      3354.02675187
      -753.04944112
      -19317.15986296
      3439.32525334
      10587.55299092
      10876.81529153
      6413.21122245
      10466.42643985
      6754.31467980
      1004.69356337
      -4087.59890606
      2078.32345335
      7573.65927736
      9543.60645655
      4066.57581251
      4971.58430747
      5828.81978468
      13269.23541608
      2090.71567653
      5495.27172333
      3717.44494710
      2809.90828193
      2821.54224600
      4936.33426326
      1494.96617002
      3140.80526308
      4227.90135980
      3884.23038320
      1910.18509080
      9507.17089169
      1354.61219986
      1788.01401912
      4261.74051120
      6186.98727564
      5894.71213107
      6603.90114734
      5999.38730747
      1123.36696075
      1282.23714403
      2485.00905373
      3251.06567930
      1201.79147934
      1018.41004039
      3412.82810012
      805.78529560
      2415.32951599
      1978.78972555
      1832.79288505
      1814.19713978
      -96.14708397
      -489.30020333
      -4120.92289441
      113.70098876
      2517.02197548
      -209.23382061
      -1682.55306914
      216.20607358
      4869.51602671
      971.02092891
      1928.66775575
      2955.74405231
      8992.24380126
      19614.36471615
      3675.88475207
      12208.69139892
      27257.26588648
      6769.76401895
      -1085.63511683
      3211.75720808
      10270.92434200
      16397.87433940
      9747.50966966
      6360.21401757
      8142.43747166
      4629.44126184
      6462.04001459
      2363.00247745
      5617.73657308
      4829.58724650
      4358.59562034
      3101.05841496
      5808.42693985
      2339.39433440
      5603.76629003
      4809.29082602
      3683.49578565
      6138.41087719
      1073.83390118
      -286.44380941
      2909.51020560
      2755.25756810
      2608.51615213
      5703.95358821
      7073.31847097
      5649.59511963
      8349.12998207
      8978.42701990
      3196.45917655
      6529.98449430
      1190.71609179
      2556.26957243
      1220.50717440
      181.78947734
      373.53026663
      882.16088152
      2282.44769024
      1639.85253261
      1292.57394296
      825.38229702
      1484.50460970
      768.51308981
      541.65075031
      -1454.96201786
      4320.67106743
      -319.25244222
      1330.09246962
      1032.66501427
      -594.47050640
      4176.79059095
      4184.41956003
      3242.86310648
      -995.88087624
      -918.66178053
      4951.30875027
      2902.40357630
      -1782.65766568
      402.97119961
      12427.45790144
      -2915.93281743
      -15121.94697126
      23357.01051449
      6365.07470554
      5567.85006343
      3089.67072762
      457.30773250
      1351.07896724
      5983.84215203
      6605.96215031
      4395.51980561
      7369.24461501
      -490.60895198
      4540.09055352
      6277.17339874
      6507.99171861
      2476.78808175
      7359.33200431
      3813.86943775
      -4859.79050685
      8064.53724876
      1915.63924799
      5358.65435072
      -5769.58844160
      12393.27523766
      15241.67518167
      5124.75918743
      9644.57820783
      11164.53291282
      9942.32510125
      17311.09130754
      4735.75989301
      8505.34362632
      15860.58754043
      9802.69833673
      14928.98724549
      11626.48454093
      -532.69540254
      2649.55961130
      2088.54417657
      2174.79002202
      523.49576297
      3622.04964369
      -309.32425257
      1291.14236716
      2000.73620215
      986.32187982
      1245.11964322
      1097.78445901
      -40.99726115
      665.41817665
      -22.11470411
      2390.98449975
      1470.65546401
      -1554.37866512
      641.93162750
      6696.03899268
      1011.00373232
      1564.17585493
      3332.96271885
      7352.73773784
      -283.78404296
      7151.36600225
      -1725.17555942
      2256.80929752
      5822.94911568
      6316.47984142
      11044.29371737
      1780.90437697
      4798.28926646
      102.50349128
      5967.06688848
      -40161.08078057
      5565.72564939
      5673.33666677
      7077.78189250
      10722.05420685
      5409.34209005
      8544.58626695
      3698.60994214
      3332.40657557
      201.33723304
      17902.57758819
      8145.25751476
      16061.85859558
      12053.57191571
      16553.59622922
      8290.39009173
      8625.79771073
      8544.41256184
      5478.03820583
      5387.19402601
      4881.61221767
      7676.02930143
      9628.01913171
      787.62666407
      3144.84900863
      8328.62949145
      6199.65020419
      13281.02002203
      11398.75744892
      -1747.45041581
      3874.53488230
      15263.20070461
      2054.74071595
      8201.22103966
      2514.39863544
      4007.94552362