<?xml version="1.0"?>
<VTKFile type= "UnstructuredGrid"  version= "0.1"  byte_order= "BigEndian">
<UnstructuredGrid>
<Piece NumberOfPoints="5123" NumberOfCells="5123">
<PointData Scalars="Pressure" Vectors="Velocity">
<DataArray type="Float32" Name="Pressures" format="ascii">
      78.35616983
      -17567.81421992
      -23903.18802616
      -25493.28008765
      -24261.99582305
      -28560.32273856
      -29272.80775739
      1148.29227962
      -105.65965977
      -23569.16128140
      995.69990591
      -22140.43487678
      46.17225975
      382.33892351
      -20993.64946475
      1573.73075168
      147.66749922
      -27025.94562458
      431.91976317
      -140.94419637
      264.58471179
      -769.48942575
      -228.90067115
      2521.48834292
      714.53396693
      -1309.13792178
      -204.38852060
      957.35436532
      -797.08310216
      -344.48731154
      -833.12025707
      -418.50534756
      -279.26173665
      217.78102317
      -27.86156564
      -804.18127672
      -1169.32680888
      589.41942304
      613.28806962
      1032.03151470
      -2452.74993494
      1815.65150566
      2281.11973846
      -2357.04550118
      1965.24779738
      -484.84163474
      544.75046864
      -49.47019952
      10876.86831148
      -1110.25005057
      -2452.76679015
      6548.47881051
      -991.45965077
      -1380.15607428
      4277.39432636
      560.32561939
      4764.46373409
      2714.48943539
      7768.72255828
      5588.82745428
      1390.53620226
      3682.12797070
      -2649.03986146
      161.84960427
      4479.14542289
      -4551.14754794
      2407.15894907
      5389.50317142
      449.34400292
      2012.01240278
      719.55408004
      1367.40247809
      2409.41345642
      2697.48290139
      58.34353074
      2595.55325397
      532.96982355
      2635.24701912
      328.78797119
      1036.72440593
      20.86688007
      61.60603370
      1700.47117646
      414.62284591
      644.22224635
      40.05413219
      716.73244939
      1945.70625024
      -705.65060731
      -5886.95970713
      3599.90400211
      4786.91246122
      1022.96230927
      623.60484594
      -1068.97935914
      5.77795339
      1001.53942619
      -1364.38324557
      -584.07305484
      581.56892833
      -1673.05421205
      4902.81163015
      -1253.37583832
      -403.47321316
      -386.08911048
      574.10046087
      156.22861602
      -894.78016857
      -210.74329745
      -941.88822647
      1155.95628904
      1368.98411887
      98.65133342
      1643.11177643
      1051.84390208
      972.11235596
      484.43378101
      -2774.60723673
      903.71744377
      -2655.16457800
      -2245.19782206
      -7969.43368232
      1431.78784284
      3101.95959867
      2851.57520899
      1647.97377876
      3675.73198973
      789.46940747
      -4370.54796856
      9910.05002305
      223.09678309
      -1028.62306091
      -24148.52814249
      579.56855808
      709.16104557
      1310.12151277
      1391.26008527
      3538.64300270
      2349.95825573
      1019.17777621
      48.40043248
      489.52780073
      1420.74255095
      841.75038057
      -579.45087888
      -477.65071057
      1248.86022049
      -276.19377806
      -2122.28055465
      -579.15143484
      221.25449692
      651.61711269
      1878.81117139
      733.65801198
      914.13006011
      12.78351402
      5.22070316
      1381.73233425
      -1384.78147130
      -406.56229708
      -283.58235333
      -239.80305849
      163.33091498
      238.21334368
      2812.20984239
      -90.11276571
      -998.53048422
      900.02841045
      1842.07754146
      -1680.29248927
      1280.17782141
      499.27482136
      -2550.79866716
      -1473.91037401
      -1348.31220459
      -1812.18498302
      -320.24527595
      266.54274765
      -303.97699864
      -336.88369586
      -754.72388842
      2119.34510432
      1082.14489998
      -686.03974158
      2576.17594108
      1746.11506017
      731.91116723
      3908.95764717
      1314.63670080
      1414.36683788
      -5210.81406984
      11515.99355802
      5312.34393558
      -6001.91896660
      -8527.07103771
      2032.82699714
      814.80084605
      -2593.56757019
      -18716.99888393
      583.69669684
      1498.46777263
      1519.99960740
      4467.40089602
      314.62711919
      4415.59744566
      4699.27322570
      1372.88419583
      1477.64508756
      3578.92988952
      1801.01473856
      1588.66260665
      4249.05674000
      569.17741577
      2172.05247206
      1222.26378963
      747.30044117
      2448.92004976
      874.99140520
      -837.74685963
      775.90724268
      2049.07490344
      2052.83863509
      1231.62995193
      3052.54284670
      419.48756493
      -257.31018721
      -1876.69188081
      -8997.18469147
      190.75193840
      3316.89308535
      -3812.22460749
      -1309.05758107
      2842.31197495
      -1595.98774720
      347.32445476
      -1121.34302620
      -39.37476184
      1687.34703636
      394.26734044
      2726.14350557
      -587.01176281
      1811.37427253
      -1041.61898535
      1404.88107840
      3815.58754105
      -1288.07991269
      2564.47156531
      2300.52045304
      5557.19066228
      -367.95135072
      3962.92785871
      2465.44624260
      2202.04013206
      1950.78514870
      -10944.86679837
      871.25646416
      -491.05235474
      2238.18194239
      3040.21193590
      212.94964026
      2194.77868359
      3160.96902966
      1395.78008478
      -9795.72292326
      -27399.67254656
      2946.83239156
      3710.55557880
      2485.58438964
      -384.71842781
      4993.93780955
      824.92683566
      272.46912834
      4630.45924048
      -1551.89447112
      3194.54173588
      923.27811253
      -599.23210191
      -2844.55166920
      -5.45123752
      -152.23352311
      -183.70980978
      728.21761709
      527.74373755
      444.64546670
      164.28361211
      1779.43525366
      4232.47787783
      -15.66147356
      1373.88936603
      -1254.12773619
      246.87907097
      -554.06759735
      -3429.29899202
      1572.41107513
      803.27158966
      1281.92583160
      -212.64364159
      61.13417992
      1308.58047103
      421.73611871
      -1090.07685686
      2830.54287908
      -1075.58535784
      1161.88842080
      1116.40647942
      -1395.32426436
      3645.51877800
      8178.11295891
      1289.44054086
      4145.67337653
      5835.04465716
      513.15607436
      3544.87208799
      -2065.60415488
      1966.81413633
      1109.27565164
      4304.79530571
      3872.65770383
      1131.55636662
      -4197.78852715
      80.80367765
      3260.13421802
      2627.82651579
      311.67438667
      1297.32153606
      3804.72328389
      3711.79183583
      3001.06758479
      2183.01426499
      8319.10272366
      -20980.90566408
      6424.05883865
      3978.41369306
      1509.51975468
      2731.18035424
      1857.80210154
      1023.18000300
      1581.14709456
      1447.74512980
      -1255.94163121
      -466.35469490
      2445.16085641
      -666.12215472
      2137.18479269
      4648.48526277
      4946.16319466
      5474.72845527
      4786.61310255
      3057.31752699
      6283.62121293
      3644.80114507
      -848.70559891
      -2936.86353262
      -1748.48446251
      5032.32191891
      5035.95093904
      -1649.44630394
      1129.11905339
      2587.48634363
      223.54327835
      1094.42894779
      489.36356081
      806.31664368
      1679.84317153
      1204.24936134
      3234.36373369
      2441.08513032
      1064.30751825
      688.30317911
      897.03156181
      2238.23081500
      2502.22469262
      10034.05609297
      982.16938889
      2892.42802140
      -574.27605672
      2123.08650179
      3911.60812494
      4652.31388008
      6840.89763090
      -1067.48969659
      -4375.98726734
      12567.55848963
      18862.91420594
      -5814.66918418
      1375.89684335
      -1563.70806138
      4979.60318130
      3357.52816738
      -2641.50325588
      1130.45036714
      633.67226327
      390.65068884
      1102.77821425
      3781.89881463
      9338.18448112
      3027.03360546
      3807.41487082
      1691.16328021
      3388.32402000
      6819.93479458
      1236.04733134
      1555.16139244
      -6484.16298813
      5151.99498386
      6002.95567075
      1543.13734376
      825.37765570
      1380.05894172
      1313.31473845
      347.16782647
      1890.60827279
      1920.88410168
      1460.47500712
      5424.35379789
      207.44178218
      -1207.13257839
      2995.12894149
      1952.34405188
      4585.63864517
      4789.45197648
      2379.20322239
      1968.40078599
      4769.48454232
      1475.63662056
      258.43255206
      5358.83682679
      1954.42520423
      2851.30341098
      924.27935366
      1682.37602166
      -1653.56864984
      5324.43423280
      1203.16012201
      7238.60966082
      3606.10253915
      3105.19147741
      4874.31580564
      3568.17813209
      2073.11103835
      2376.58627503
      2105.46033546
      2652.85097693
      1417.08650310
      2034.26432135
      1275.72332076
      1772.26588722
      1307.57372178
      -2615.44622929
      12257.15155224
      11789.18257514
      -2331.79917668
      2303.81600377
      9298.25932108
      8085.92745990
      6056.07164519
      656.82566461
      -82.03744559
      1217.88312774
      3350.91610028
      6725.64164239
      8204.98185670
      3030.53878271
      474.31962791
      1986.25769213
      1263.52872206
      -668.15941344
      4093.48647070
      9067.27453404
      -950.48470765
      -422.59384332
      -2450.16622492
      3362.25552224
      7228.74653736
      2627.59285809
      3627.47243387
      3993.78683669
      2493.27253247
      3327.01065630
      4106.96503111
      2923.94253090
      3534.53756838
      3758.60085024
      3921.38578008
      3184.40924172
      1298.42452738
      4545.30525269
      5485.54897163
      1885.65147741
      6983.51492605
      6795.26197645
      5331.40081955
      6688.76820624
      7391.68056878
      4257.94536721
      6605.75775719
      3584.39458071
      6257.14525071
      1301.82689507
      1977.07492604
      2661.55130096
      5690.44581491
      2794.31982030
      3039.89771413
      4190.84382845
      4553.50671131
      2026.04545322
      861.27110582
      857.36791944
      964.07377016
      3776.45773658
      1535.92057618
      -2902.75343475
      691.34917475
      1532.37906415
      7392.05706462
      533.98267978
      6184.34232477
      8935.74817286
      4622.53992519
      3372.70106759
      1944.45286394
      -37.46829492
      283.85846195
      2552.51753386
      528.56070699
      4913.10274259
      5490.63447628
      -21336.21804100
      5974.08472486
      7931.09646646
      -933.95271843
      4275.01317393
      197.87384577
      5550.72170291
      2863.98635777
      2829.45995595
      4333.23957423
      2293.81181584
      6189.02371611
      9703.95037517
      -135.66869919
      10670.91178858
      2710.28886636
      4708.50090886
      1260.54110907
      3192.65288788
      10365.17615523
      8300.96488894
      2892.51671476
      13567.00709799
      947.30982826
      6609.40637405
      9584.58181511
      12131.90533088
      8173.57539040
      3185.17352192
      1943.84378889
      13402.52585610
      3063.23400175
      3419.39122873
      13507.82501128
      13401.05754662
      2346.22949871
      6026.19744970
      4541.66018980
      2363.95717600
      9656.49831821
      4426.11635998
      3953.33935459
      4591.02972523
      -2171.66510248
      9703.14667569
      2958.93886793
      633.00614851
      2297.81177878
      -221.33655649
      2972.65798170
      488.53225619
      3260.13170007
      4188.18848032
      16015.28673462
      2582.81339903
      2860.74467646
      11387.38180622
      4076.66903478
      4109.65069714
      4040.72008804
      3184.27876947
      -1645.82663820
      2782.60043794
      5215.96836368
      -148.59679991
      3105.95033442
      3168.36999040
      -16161.55176151
      4238.99493669
      845.40063449
      1493.75955427
      1813.71251375
      87.01583179
      4698.32848588
      6157.07431545
      3674.98532827
      14058.06325017
      9819.26935180
      3589.28169058
      10524.87436494
      6301.01722806
      5541.97392727
      2012.95850082
      7262.60870800
      10297.95551256
      8757.95105697
      3387.41668841
      6712.13840150
      7039.18267937
      2799.66759667
      3699.70889925
      3636.57941765
      4958.89390593
      1019.23984023
      7589.44831367
      5279.02552844
      2560.44179106
      6495.90391547
      9914.42669632
      5835.35431755
      14464.68511097
      3767.28689031
      903.11464665
      4144.63650084
      3252.60356520
      -1553.06335169
      6114.94478910
      2373.01107397
      3449.86897108
      162.33325001
      11909.13335171
      1744.28278734
      1530.93690023
      -1613.55811372
      3019.82211943
      3138.58126109
      3118.76564840
      2781.77035387
      15891.75292728
      6059.22069474
      8291.94128026
      3006.35304329
      8424.28120477
      7450.38372726
      -3071.53534604
      -1160.00487901
      118.85929405
      6585.82404142
      -735.35701142
      -3297.30248316
      1432.99924783
      3084.48817477
      -18378.22992136
      -5122.03323266
      4337.24674532
      7047.88754544
      4487.34887845
      3182.76509849
      7405.99676756
      5154.13545096
      6591.13870632
      2373.18404094
      7381.43745123
      6143.66469187
      6506.70468337
      23813.78114403
      12749.40721068
      4925.14417044
      4083.94385799
      4588.19567787
      6567.71926056
      3449.74940141
      4162.48127747
      2421.57543205
      3556.75192159
      2712.14089385
      2508.66016237
      3752.11500139
      509.43155578
      1540.31383184
      2983.09017292
      1867.50932253
      4449.73107147
      3503.90376602
      2571.41122062
      5750.60990381
      -5414.91945213
      2938.95051148
      1461.25716348
      242.42020363
      6355.28083689
      4871.44341994
      -971.47868875
      585.14371411
      871.19107191
      7595.15884335
      2220.83946535
      827.24200565
      6766.91035714
      6191.76528437
      291.13851292
      1654.61766958
      2952.46759905
      4002.23992805
      -915.91925642
      6412.30606047
      3835.89008684
      6956.68764897
      1418.63366426
      -889.05577569
      -378.21098664
      1384.29107802
      6136.23564421
      4617.98277822
      1843.77765093
      -694.26093405
      3506.63751731
      4406.51268153
      -15857.23209146
      651.55722409
      8220.29353073
      14969.62028877
      11873.16678492
      18356.53059229
      4791.53236322
      15108.12496752
      4204.31794160
      7740.62418829
      10432.00196611
      13874.40488507
      27456.93626482
      15907.26392191
      5979.73834561
      5360.81264731
      6637.74197815
      5684.26957043
      2576.40971895
      1501.78053281
      2027.02147422
      1847.15867240
      1723.00400807
      3420.47570543
      3572.49088704
      3724.41422551
      10585.45287504
      3578.32451942
      1456.02294231
      4456.18910168
      -4055.16332278
      1834.12550095
      5234.34904508
      7393.05905708
      3834.35847478
      4973.36063877
      3386.19989616
      6656.67539120
      3401.06940030
      2810.30991045
      2142.17688984
      1388.03788379
      6057.26859847
      5841.48810331
      7093.82008858
      1099.47037110
      -341.70948977
      92.94816847
      5801.55459478
      1088.85601417
      1168.90742446
      3190.21396296
      2969.58091534
      1942.87022992
      812.44971619
      3514.83744041
      256.70757975
      9873.44768598
      -349.32311419
      -1470.97232317
      -1403.06532277
      912.99333130
      3912.55958009
      5822.14155165
      4833.29934731
      1440.78507509
      -1607.96345900
      1695.25902875
      3262.80820497
      6670.86322079
      2589.20770949
      2260.05148670
      9459.54720422
      5378.08438019
      2102.37431417
      10397.25235089
      3852.90318822
      3235.92605703
      2061.77561071
      8047.84243775
      2916.95767453
      2498.73190884
      4339.46737295
      2828.34775841
      1354.73224849
      2327.85743523
      2559.70211782
      2027.79412327
      2863.48621664
      1945.11294951
      4091.32616256
      2769.02536139
      996.61153540
      1565.77013444
      9723.15522087
      6149.95235677
      704.60767624
      747.05955654
      4802.06063497
      3018.69724273
      5979.51410537
      3255.78197328
      380.80724966
      1898.71925376
      2830.88573442
      3813.21157405
      -284.28101282
      1665.12515233
      458.39511936
      -654.07177334
      3091.60651596
      2739.81240431
      -2864.72836127
      -3004.07958885
      3872.47398694
      3738.98871627
      3065.24200873
      -353.22161857
      1451.95290300
      -273.89358621
      2447.75834798
      -1468.12844218
      4471.69431192
      4739.39091397
      14.74765441
      398.02829648
      3085.98588736
      6289.72545519
      4171.68890040
      1554.13003359
      3356.18060188
      2417.76061916
      -7886.36499036
      7399.27274488
      4345.65955555
      5787.73731637
      4566.49934077
      6113.74267225
      1617.51595465
      11743.38250758
      10326.23442090
      3902.80227633
      9743.40346352
      2401.52525318
      4640.76835445
      10088.62922745
      -10612.55499920
      8935.69105670
      4688.54951728
      -1642.45337004
      -755.18373553
      1079.20766037
      7199.97553509
      4264.59054608
      -559.09753748
      5202.14306403
      -891.87650841
      3548.46023833
      1934.69649799
      3021.48902491
      1228.23297726
      8360.41949012
      3425.30853745
      1920.64266592
      4859.24080597
      3536.57725232
      527.35366835
      5275.85167917
      9195.32699609
      2058.65815224
      2148.87461053
      2026.39418932
      1667.14716719
      3767.33244491
      3535.97477054
      2204.57468385
      -793.62599812
      -270.98761622
      7043.00175086
      5464.93225614
      1559.58196995
      669.38345378
      5356.12988607
      2825.72591849
      1847.28622104
      3266.19241227
      3717.84342732
      4461.95674426
      6371.60840471
      5600.45979904
      5987.78418273
      3687.44010138
      2650.61632768
      248.15867571
      -2732.77884561
      5249.00248864
      10454.67961405
      -194.74133566
      5308.55432385
      13993.52186527
      19448.34114099
      16530.27174754
      11023.66191577
      6120.34698654
      5292.76666177
      8556.07726168
      4655.16090063
      4295.02518067
      6237.05703579
      271.08672752
      10399.35328877
      -3769.65653975
      1104.68514629
      1589.79224635
      3960.50127914
      2506.66180792
      1391.99902046
      2346.08757747
      5488.65329560
      4.43044239
      909.71547322
      5606.93121731
      893.98108556
      5599.90851157
      1372.46571599
      4213.94032455
      7195.70323896
      1057.34344621
      2790.51172251
      1571.90011704
      2711.34519281
      1884.74466522
      4247.00891723
      -1794.59508214
      2607.36959996
      3067.61590548
      1519.67953681
      419.56031910
      985.73553573
      -2413.40060715
      7791.07329367
      -2148.31256538
      2199.87271310
      -1323.05256772
      1332.73834980
      3561.86269757
      3159.17830927
      -1826.73343421
      -4543.58854675
      -4677.14247195
      -1335.26885481
      2085.61246527
      1125.23400490
      2750.34154625
      1589.67820774
      3264.67275620
      -1853.75440824
      2385.13019215
      2368.89600959
      -1268.94244969
      -1222.20788954
      -438.16523570
      -141.74960595
      3687.51239537
      -28338.34729544
      14756.98929304
      7689.37082312
      6270.15664240
      12287.28284127
      -452.66727323
      7164.97007357
      7550.04352969
      -285.00538431
      7579.25272796
      6337.16696476
      8483.61825888
      3413.61999141
      2271.85166891
      1040.46182979
      1147.81511183
      148.40364763
      3169.83373111
      1048.20635573
      3163.90480634
      1688.14751401
      2238.09823451
      -688.32303785
      620.54436643
      1148.71773828
      5079.86684742
      3085.82158361
      2374.49544768
      1257.12507530
      374.84500964
      298.17572513
      2989.39473808
      2238.53866661
      4169.19951325
      1701.65169338
      640.13339189
      168.47767801
      1715.56400188
      1433.88755113
      2602.08140287
      2845.08060929
      3285.13150511
      4049.15689360
      516.73633862
      2399.82385115
      2951.03424243
      2740.46922533
      -1102.19133833
      514.38216981
      1995.18658394
      4453.53445289
      319.16203965
      -703.85048550
      -1022.63183346
      -5164.91029363
      -5807.72244886
      4393.30313190
      3300.21021215
      -7144.26982435
      -3419.13659920
      4915.89333543
      4002.18350981
      -7259.31625072
      -784.70844229
      9279.92025556
      10337.53398717
      5119.57362454
      7520.81101029
      10383.13955104
      7681.17153278
      1980.17466553
      -1255.58414859
      9328.89990616
      6290.98497491
      5968.73885431
      2078.79328083
      2349.34308083
      735.02343159
      1687.49987381
      3241.12569289
      686.24382872
      1631.95736240
      1233.67628581
      3942.57584639
      1875.45049161
      2525.18334716
      -437.54216729
      2325.67086082
      2638.69724137
      4036.22056437
      3446.83219909
      2497.20206140
      5462.79265901
      2490.43739192
      2056.02575364
      2823.42757809
      1365.58829443
      1314.43504412
      1995.53686163
      1178.16109312
      1768.42766487
      2435.49100091
      -420.20467022
      1159.94470031
      1373.72228286
      430.97499522
      -238.77033079
      1096.17606903
      -414.28819606
      4915.33190799
      -3341.41661701
      3063.30339304
      -1664.70899144
      194.93585075
      1687.48892641
      3424.05861546
      -507.23061287
      1292.65438297
      4351.15536685
      1992.66687880
      5055.24506256
      1642.63068066
      -2712.43834176
      710.21546388
      9581.82235027
      3520.88418506
      14438.25866950
      5801.54101964
      7237.23732486
      -1050.76170352
      9621.66148736
      2317.51682801
      1595.22935807
      8333.58204181
      3529.19400031
      6441.93258292
      7960.61597571
      3934.70232298
      3223.79143678
      -1681.99233807
      2700.10210803
      1192.77390466
      737.68293838
      1897.95013243
      3135.29110033
      2196.98973931
      3544.60272182
      1563.25901807
      925.69578956
      1297.26259462
      1938.81897770
      2284.51597577
      -548.74441045
      1644.43751750
      4950.57027670
      2102.04643105
      2372.03531716
      5462.69491444
      2141.98659077
      2291.76010253
      1691.52573407
      1099.31771584
      1230.22350147
      1121.94106022
      736.31860905
      -258.28388151
      1399.09803105
      858.55325354
      128.12155387
      1324.99041785
      312.04975432
      -169.47158796
      -180.20232434
      -362.53592407
      -192.73670736
      -1289.81207409
      -1527.74461188
      1631.45284392
      -1124.67993806
      16.86076897
      2045.20947316
      429.92883654
      1844.79736891
      1187.94971335
      -340.78032424
      9636.64238769
      -262.88170427
      -1775.33619665
      1096.03815648
      4142.42629580
      833.62858977
      8381.31298742
      11535.12330788
      5435.25159442
      5082.61795998
      1509.91569758
      2764.61859001
      6960.98998894
      -30962.88851667
      -5678.75686574
      9417.79195128
      6840.57950627
      5413.80470957
      3990.50535529
      5888.97524579
      -6728.32397004
      946.41541963
      2467.89698440
      3492.91578836
      2592.44892171
      4871.60919577
      3102.92177504
      2791.02621018
      2982.14968741
      6840.31566835
      1580.99241031
      908.52893798
      2613.01379258
      -98.20655151
      1684.72009777
      1878.48109436
      1096.72406198
      1288.49795832
      2220.00206396
      4315.77919429
      3308.52002776
      2467.72096574
      -844.80542052
      632.73865364
      3950.61721560
      540.64774643
      1416.50368938
      3666.30190303
      1434.22028808
      766.48994744
      1110.56611937
      2487.34613837
      3541.39873989
      508.86857491
      272.21402637
      1307.29904535
      2246.11394368
      -106.80686120
      -472.87437394
      4632.08331720
      -1710.47565368
      -5342.11702996
      -2956.62110056
      -407.94107287
      -782.72166819
      3137.75246254
      -554.11010032
      -11488.14754103
      1379.63395437
      5871.26892823
      -5206.45243604
      1473.94961379
      14.54008690
      6811.77907129
      4856.63949178
      8958.58070179
      5951.88579219
      2763.77875808
      3503.75021826
      -19317.15986296
      3439.32525334
      7180.21341286
      10682.95718857
      3563.57831175
      2375.26402926
      2819.66274424
      6091.85808151
      3724.47642961
      3159.80024064
      8910.03882845
      6858.12777161
      2131.62912152
      -583.79518790
      1120.88770603
      4190.10548420
      1322.93677933
      4314.33666404
      2028.52624788
      2222.68384923
      1987.02740112
      2793.56994162
      -823.39559771
      1814.95667899
      1806.88144689
      1368.65674839
      -436.95925756
      2226.16837654
      2158.75046574
      333.19460422
      386.67069277
      3166.58509112
      2369.98949145
      2570.37387116
      2936.00364371
      1385.19801300
      17.40814424
      1705.64794922
      3873.68031306
      1855.47291821
      808.40909478
      2189.74827508
      1455.23164550
      3428.48940629
      611.14556133
      584.33250242
      4121.21517268
      1396.01322002
      798.14419008
      -518.97103552
      -325.13104609
      -1457.32634575
      3852.74578961
      -1835.57149726
      283.63344964
      5008.83569606
      -1374.55098825
      1463.27876140
      6384.27727715
      13003.67699799
      15409.35816195
      8168.60685620
      6345.61665254
      4259.62525867
      -4929.62412213
      -728.76665971
      3211.75720808
      7489.47794765
      4852.86782436
      8789.74636515
      6049.05758992
      916.46848639
      4401.56910027
      2762.88950388
      -3965.82998841
      4875.83104050
      4353.74314784
      4803.05589279
      3424.27442092
      11146.55591773
      1330.60699893
      2316.62830693
      1809.86620469
      1630.88439917
      297.50059848
      2052.31579849
      390.14846027
      281.90650845
      1651.77208893
      1956.04318857
      1852.36369397
      2898.38967560
      7116.37096608
      3789.23617083
      3878.19981874
      802.66104319
      505.13340051
      1495.89111077
      1110.06106358
      1195.05070954
      2211.34911328
      -351.07254980
      2415.86822976
      3430.58166833
      420.95739973
      47.66010566
      982.83255231
      2863.16634368
      1508.81033161
      2513.30397092
      1069.08051159
      3242.34160266
      34.41492878
      -1876.76693534
      1594.09573481
      2248.66424932
      2075.81244008
      1465.29321406
      -1698.74360947
      3308.42748997
      1365.13011491
      -3421.99877321
      1936.83795321
      5485.89295230
      1376.79015375
      5694.52817541
      4984.88120976
      3731.26704375
      2178.45794600
      18283.34842839
      5071.15825501
      541.08174311
      3413.48526489
      1351.07896724
      2711.47552982
      8158.88543017
      4839.66916660
      904.23665985
      3055.12800605
      3406.61615873
      2471.77849920
      4358.77750293
      1759.24209447
      613.84604229
      2126.15540645
      1377.36428643
      1251.72140128
      -1199.97570747
      1411.60076137
      -1648.14358832
      3196.44723820
      3931.12407857
      1085.59237754
      2207.57751567
      1238.84144758
      3388.09942871
      2660.98453029
      898.58124485
      260.97415420
      3695.45759558
      1717.09999527
      2268.97104635
      4520.08938652
      1957.26416448
      2609.72925823
      2678.07922733
      -2236.71616712
      -247.81185026
      3137.70271577
      -1512.27101549
      1072.43729914
      21.58316244
      4121.53323089
      2085.31614289
      1513.71087188
      -749.26345165
      516.70740066
      1140.43226121
      1001.51748001
      1327.03161254
      455.31588307
      268.54623116
      1093.22580415
      81.97582512
      2160.38370996
      7089.58566890
      -1390.19071054
      554.95840278
      6213.35921779
      -1240.75340846
      756.42525090
      8183.62638904
      8514.63778520
      2625.53411482
      1778.81269283
      7412.17956678
      3201.88859764
      -4022.18083573
      -40161.08078057
      12425.33144358
      2207.25490643
      5512.44486901
      4295.14819377
      4002.33603066
      11731.29711267
      2561.89996215
      3042.46960950
      -976.51762906
      6950.44804865
      422.54849197
      -1651.59536101
      3213.80513219
      2377.99765590
      388.08222017
      2199.60626315
      2159.78125711
      -50.98879749
      -418.32794882
      -793.00262899
      1620.59165630
      683.21141216
      -688.66392572
      304.09007012
      -2576.24409422
      1983.15981317
      4976.25200019
      576.74980175
      568.27197528
      2646.54066379
      1389.32772193
      2257.73870976
      -890.84102380