<?xml version="1.0"?>
<VTKFile type= "UnstructuredGrid"  version= "0.1"  byte_order= "BigEndian">
<UnstructuredGrid>
<Piece NumberOfPoints="5123" NumberOfCells="5123">
<PointData Scalars="Pressure" Vectors="Velocity">
<DataArray type="Float32" Name="Pressures" format="ascii">
      896.58618782
      -19335.76670966
      -23901.35508248
      -25493.28008765
      -24261.99582305
      -28560.32273856
      -29272.80775739
      5971.20007275
      3608.66398066
      -23569.16128140
      16315.94042412
      -22140.43487678
      6266.06449570
      2509.73426116
      -20993.64946475
      7277.50771841
      2885.88602013
      -27025.94562458
      815.41395939
      1978.08354256
      12419.64195784
      -3500.14926760
      -3444.99824655
      -4080.98069424
      4770.84628002
      1191.77856788
      -1859.73983751
      3227.20505382
      -2068.31454603
      5487.57778531
      438.41668767
      -2265.33493698
      -2726.20930232
      -1013.96794733
      -2665.97519413
      -614.68549786
      402.47438162
      383.64912823
      732.54672931
      1707.24251266
      442.49995552
      -2573.46081286
      -310.50075898
      -1727.87013627
      -249.49766035
      -6.87134288
      -318.10130147
      1887.89168739
      -1937.69032409
      812.09385988
      766.60391221
      -50.34296571
      795.91210163
      983.61281980
      446.77570271
      -1243.80879046
      647.65268331
      796.65319886
      500.44797829
      334.64477166
      587.57768134
      50.66503678
      980.78674672
      624.46523624
      -126.77488837
      -800.85499457
      14492.64702200
      10790.41289100
      1118.14113183
      5636.20305384
      2132.88790400
      1043.17004634
      1805.68304129
      7644.13363751
      12633.40190964
      1124.99597697
      1111.21139029
      2343.79881822
      441.97795413
      539.46155648
      4029.82844170
      3092.98130049
      2214.12922968
      8051.26669183
      742.13707308
      -75.26538373
      410.61697882
      1866.92586033
      1455.69649942
      1769.30145180
      1917.75307016
      -2426.92370290
      3104.40232900
      -252.23461343
      3833.98080063
      1490.99449019
      2694.73146532
      45.64632972
      -4685.20516307
      -604.68403311
      351.03091704
      -4861.15239530
      9744.20512688
      3637.19573139
      2196.59369713
      -254.97256114
      -1320.83502958
      119.13590832
      -1670.93603166
      -2358.54463809
      -276.98872431
      3610.92046983
      -898.45653009
      801.48688991
      -1198.27777004
      1287.96399759
      1680.91735512
      1207.92351605
      -1965.35725839
      755.39049311
      -140.99112505
      107.13752161
      661.72530529
      -5637.23702565
      -447.57579759
      -825.32835206
      470.27445051
      129.68308365
      -780.94803331
      192.10075157
      -520.72511752
      -793.38509312
      4498.16816148
      3143.81200600
      -310.29000259
      204.59666072
      -10.75573793
      6832.42491874
      6866.08715967
      3493.88605173
      8507.07160211
      5294.69339727
      5973.59197854
      2439.60672869
      3478.82691973
      1870.47984845
      4997.55037516
      2376.69981465
      1431.02381160
      4209.09581622
      7498.01672953
      3396.60136895
      623.49573427
      2081.44137871
      4083.31010345
      2452.37523277
      3944.85674221
      3190.66255604
      -1529.52032957
      -1752.16020360
      2879.39711115
      3413.32240171
      531.13871465
      1216.37526340
      4946.10999295
      4856.68974053
      2834.70765161
      3686.88150260
      2023.80544003
      914.43694968
      -3001.23027894
      2693.24013541
      7142.24301646
      1802.10656761
      2361.17843262
      9507.17393335
      1092.23722420
      4080.76225837
      -1074.77450263
      -6024.75966341
      3285.04375925
      5068.96278516
      -843.62684016
      -963.17967601
      2053.03388713
      1206.20895143
      -160.51283243
      2993.28359683
      1680.43446509
      -1298.31773916
      6353.83195059
      3178.03034358
      1551.69257999
      -960.36899855
      867.73875427
      -499.24793935
      -1887.10393531
      466.65847686
      -18716.99888393
      2011.61731607
      1872.70492340
      7903.87269603
      3465.85596569
      7688.99575566
      2651.40987738
      3617.57898447
      2907.53605673
      551.05999045
      2990.89757054
      390.47763331
      3520.42499202
      2382.56725680
      11241.99979953
      1690.38375874
      3509.17178871
      8943.70713744
      2211.35007233
      10082.01588644
      -1057.97315072
      2642.80300888
      5646.40668856
      5144.02558776
      2344.14439516
      1598.04755291
      2547.84054938
      6224.20605714
      3387.42156530
      -1345.71325382
      3260.78482479
      2527.75719357
      3190.25703839
      2738.42353986
      7369.04565285
      3816.94875350
      2145.83297327
      -2305.84477034
      -1179.60627872
      1914.33853298
      -941.82966341
      -2093.45153786
      7048.59453603
      -5681.57148997
      3445.30279389
      -124.93876725
      598.78472923
      -928.15512393
      -797.99660183
      1800.91337355
      3110.51626051
      -4962.75556623
      -1771.60228271
      1178.71934775
      2034.72592338
      2977.11719209
      867.32551542
      471.63106731
      -2631.58910661
      -460.39493673
      871.42871475
      1492.54176662
      1267.34757574
      -466.66212743
      -1792.89467597
      -112.45249269
      -27399.67254656
      16342.53199686
      11235.71672178
      12401.06188093
      7914.97381866
      11305.68272838
      3586.93618360
      1515.57627110
      3564.36908702
      5525.28591228
      1612.63180888
      1594.83424670
      5447.65970602
      10263.96564703
      3920.92032527
      586.96980145
      1659.69095328
      2215.94141973
      5592.26864853
      10238.79309073
      9745.31579026
      6527.66584762
      9821.21436949
      4160.30900421
      2324.78900914
      6787.20138819
      3604.64293880
      2269.46233572
      5940.50504216
      36.74656801
      3787.98079722
      9335.41160893
      -1175.29402587
      461.84434586
      -222.36090067
      9556.74533090
      5171.63245611
      3312.58333652
      7547.20716592
      2055.03602835
      2786.17142986
      3173.07823955
      -980.02078498
      1182.84012745
      2455.54941448
      3172.87828296
      1714.41729029
      1980.64102327
      525.89010613
      215.00342670
      1696.22970001
      -251.19422097
      -202.84137575
      1082.84856785
      1555.65442798
      3114.57784975
      538.14086580
      1167.12314876
      1636.18302036
      171.59594842
      -1525.41090907
      460.62696427
      874.26947710
      -4491.50007098
      686.83746029
      -617.92286182
      -20980.90566408
      4180.53455005
      9696.24373399
      4508.45863905
      3395.06078071
      14760.91325748
      6772.92837195
      16253.72183695
      8559.22316814
      5169.68694935
      659.79818528
      616.53975593
      -1429.69911629
      14176.05164125
      -1640.14503027
      2686.63799349
      -1210.46086173
      10237.06608016
      4520.11633112
      9205.71935448
      3673.01295267
      1781.90304278
      4993.27453233
      1771.18645948
      9869.59048072
      9214.66973124
      5666.57150381
      5372.83976334
      6205.62918097
      -11850.70572734
      1920.51609130
      4185.27623507
      -1289.94127988
      2807.11732562
      1403.32241984
      5075.55722854
      2849.46444007
      814.69221165
      4446.63463132
      2743.72699061
      2461.42491281
      -189.27911944
      -1017.24075307
      5530.12296474
      2379.22568000
      2425.91010782
      2128.62026860
      2528.27487531
      -1855.98600391
      -2184.25566978
      3.59357137
      3951.15974299
      4754.86767492
      -2298.74407012
      -112.69612878
      -1665.77573262
      2491.57352773
      4091.54940373
      2987.33170781
      4375.75262904
      302.85944957
      915.76867091
      913.18273982
      -2637.42761786
      -1364.32208803
      449.31912094
      14746.96231909
      4475.94635646
      8169.63957072
      6659.81913072
      1443.93389011
      9078.29495448
      6645.39888756
      6241.37882589
      8693.81393422
      8828.02519932
      7623.06915349
      3799.48623115
      1418.88577899
      5275.05411352
      4515.32693499
      4194.99966013
      5213.73385441
      3145.92867125
      5039.14666640
      8284.07033051
      1789.15308029
      6534.86104997
      4023.26389664
      7045.76338532
      8105.43772640
      5970.93295902
      1500.20829887
      897.26890773
      -2471.64718477
      1935.40625596
      -598.67621688
      1987.90135719
      -1782.77925094
      6278.27938518
      -707.50714659
      12713.11305042
      8363.85882659
      1629.58322797
      7541.23913683
      -2328.18568258
      6750.86276899
      4144.98358373
      2698.34562790
      2106.76788992
      1412.85100165
      -3634.21108757
      3475.91180909
      34.19928497
      4731.19485149
      3235.98711657
      3258.14248834
      778.25290842
      455.44359584
      3072.60434762
      2754.18392852
      -751.13567397
      1582.55769426
      2617.07695441
      2300.45536043
      3859.40359030
      3579.41732681
      -428.99273613
      2129.40772508
      3892.14207231
      550.27772397
      -89.21977385
      11007.00966444
      4916.56647792
      8096.07397299
      23182.23300806
      6044.72357128
      19681.71929756
      5176.66990173
      3399.97300216
      2804.93310189
      7461.25649251
      7482.71979334
      4651.46434417
      4546.59565290
      4656.85860034
      -833.50138290
      5835.81560795
      1658.01859666
      3448.46086380
      5578.52129656
      8029.10850637
      2513.63548486
      8071.96326876
      4287.97625653
      4478.53490583
      7260.95970255
      368.56667959
      3104.27989508
      4931.31567805
      2984.26006148
      6918.52240294
      2805.45296857
      2706.27052963
      2724.28918656
      4500.46509975
      6327.85927048
      655.93950099
      -1697.11804100
      1463.48539848
      9073.25186257
      6425.34469444
      7647.86805525
      -1220.91832328
      -276.60740052
      7797.49514449
      3093.83595481
      2276.94883071
      987.27927631
      393.66633730
      5927.82779891
      3543.17868497
      -149.21858306
      -344.60231286
      2964.78846333
      1284.42912847
      -260.36338820
      1737.15721301
      -272.80685442
      2356.21120204
      4606.78969852
      2760.98483703
      1469.36135156
      472.47381678
      3917.08658688
      2184.33946156
      -1593.22787692
      -3036.94153475
      -21336.21804100
      9008.15012224
      16434.69055806
      5967.86669967
      7734.93323433
      4729.19396000
      4492.89999503
      8940.54275155
      4318.92894952
      4232.35617450
      3323.07224403
      1355.27619246
      6794.94923752
      3189.21624620
      1319.37542186
      6761.83121132
      7218.51625355
      3208.77810488
      -1330.26493613
      3435.63475677
      3034.67452306
      3064.37219158
      3649.24540139
      4452.45246483
      1726.93772743
      6858.36503725
      3788.55311733
      2670.11909685
      942.52167822
      5632.67521164
      1176.07604141
      6427.84661342
      -1987.43987807
      5945.16450746
      2579.93597061
      -3301.57588237
      4555.13366713
      2637.58419868
      -1356.32754034
      5152.16607449
      8690.50229799
      4989.11440151
      4548.57275400
      863.24337442
      3710.66142520
      2569.69678560
      2190.46533587
      1102.80217611
      5398.05601101
      4344.02879573
      2763.34963648
      -1261.35777931
      3064.80475049
      616.68658532
      2376.46930636
      1663.28204814
      316.64270794
      468.56539297
      2184.02926582
      -9.76481302
      1003.07028266
      1269.43302259
      1354.23137861
      -3021.37821673
      463.18002188
      246.69786006
      16734.62567417
      14881.88533298
      17591.02764582
      9433.92804750
      4528.75188220
      3913.32991538
      -951.60456310
      2451.39144290
      5314.35639818
      3921.29610957
      9438.46082900
      4953.77890360
      8662.84664810
      11540.62479933
      823.68960300
      5364.59455507
      3774.47577666
      7447.88856877
      3558.53050983
      5621.36303606
      4047.99668619
      284.49350154
      1524.72331931
      1787.15277929
      1326.38617276
      3452.71070983
      6776.21856911
      2140.65439190
      4525.07531101
      4152.59744509
      5319.77150045
      7545.91377239
      2281.68716544
      6527.70927870
      -581.77802352
      -3422.61734242
      -4627.90227451
      4298.41614939
      6912.56206960
      4710.82686533
      354.33858794
      3895.49560484
      4267.97085995
      6899.90600929
      -4272.50925356
      2401.36672312
      2006.08104046
      3695.38718949
      2849.35052613
      47.40281018
      -1668.14922744
      7402.29293038
      924.62249985
      -3631.99283997
      1972.13099696
      1304.45840514
      1416.19300809
      909.88664628
      2057.32323951
      2264.35191863
      2199.37602163
      1008.98844394
      2898.51181722
      -1352.44830939
      -456.80788981
      -1602.66231844
      -18378.22992136
      -791.69689052
      1282.60566462
      4599.19321579
      3957.74041373
      4246.15979514
      10953.28544815
      1994.31882596
      2609.05973573
      -68.45451345
      4220.78213593
      4282.09386704
      -1206.81728015
      4178.45731188
      8221.61616019
      4863.81093265
      4435.61352455
      3247.19157836
      2393.01114475
      5201.09858765
      1420.97965769
      5091.87159422
      4433.44854438
      1613.68272188
      1961.33920018
      2111.33423248
      5648.53789158
      3912.39757943
      8431.22839909
      2594.56123721
      3050.54305567
      4604.26967706
      3222.41576476
      3892.21447490
      750.37238554
      2417.01713220
      2820.63119246
      28.06101664
      -2356.66030274
      2498.24285994
      865.15944187
      3508.24704711
      -186.99956423
      -2273.33185527
      1579.07366810
      4513.36977321
      3027.37585768
      -2446.23526197
      -464.00996483
      593.96202774
      3741.56039202
      1247.15419900
      1554.21963587
      -206.74085699
      2834.41706839
      3386.21081939
      -1805.32788945
      2288.38376670
      3164.69996714
      2055.46579181
      2966.19047410
      -72.45830518
      507.30147300
      -2721.39069780
      147.24722531
      1270.41842672
      12778.29090159
      5888.48498443
      14902.63906698
      2731.23062102
      10.26772900
      6959.49836176
      7275.69636094
      1175.51084599
      6718.35683742
      1263.83243708
      5062.86882113
      6211.49874613
      4733.33816276
      3716.99137020
      5784.61057696
      6958.28571378
      7041.08195024
      2325.57002717
      6559.36547469
      6966.14946262
      746.50930446
      1364.53730007
      5401.65615611
      3436.69973972
      3426.74192205
      1493.27623949
      1011.30769878
      4478.43180391
      -2463.83122974
      4757.50012312
      6838.44547589
      5407.33411364
      4644.82927220
      -874.02982141
      1331.21399015
      3848.85038773
      2457.01035910
      3081.26717363
      6643.89831378
      2772.25825729
      3438.90643542
      2797.49249656
      1475.36785465
      4418.40003760
      1457.99814600
      -1215.28938517
      2760.23756528
      1321.90490850
      828.40484684
      -819.74931066
      895.58490230
      3863.53317779
      1304.98824858
      519.25493882
      582.72827712
      2156.91080980
      1288.17914625
      1044.13781983
      3107.38130235
      116.77917196
      424.60936712
      2969.67256470
      64.12110251
      -689.44174581
      689.20590400
      687.67474395
      15706.47393737
      6012.89777519
      7234.54079475
      3296.83827514
      6036.30177416
      8852.75352467
      8407.45895614
      1261.71761532
      440.02806515
      -1166.72930980
      13482.15539633
      4959.71829503
      7172.30788613
      11517.60547520
      -7008.49114352
      5024.79216616
      1868.62356010
      5017.85020510
      11063.00989154
      1280.79914578
      -1862.92250836
      1021.11025698
      5514.00364991
      2979.71207464
      4064.86547734
      6597.15284742
      2702.56901670
      -378.66284027
      1238.86794823
      1844.67038129
      398.56274681
      2434.31718140
      4667.29639401
      -408.24915097
      6297.87155789
      5035.72706972
      1231.58578946
      4573.51379602
      3177.36764528
      2772.45297081
      6535.78791354
      3486.73765679
      3580.00556661
      3870.39926658
      333.36963081
      7005.98823446
      5271.19691555
      1423.65014430
      1162.62847739
      865.48494417
      1562.87083251
      2737.16824489
      1029.92474545
      1617.58792854
      195.96028076
      766.71499116
      955.20055807
      1389.80180806
      788.93226618
      -33.31901548
      -841.06360851
      482.16093229
      947.47181287
      1274.00623466
      585.13090188
      1074.11657787
      -7679.50240864
      5807.65016632
      5599.54506469
      3349.77359810
      7936.14829761
      8907.82338881
      -1973.87178690
      1319.23682721
      -4749.55300852
      6064.02660968
      7098.01119661
      1472.59022630
      5838.25409754
      1630.73223545
      3143.49149684
      1622.36324594
      1171.27315243
      870.38130683
      -2557.20748678
      5739.70849176
      -1729.51399138
      -139.77480574
      -651.36540626
      4527.44998857
      1741.18793634
      1209.22133149
      2007.95707660
      2979.77011823
      4886.08845229
      -437.47053047
      3798.59128961
      3407.66102090
      3189.41344008
      4388.83007090
      1073.55602488
      5737.46360644
      2772.80492008
      3881.65449062
      2341.64390479
      4457.25664274
      3411.27874321
      2355.74218565
      3886.64509182
      1956.73931165
      3732.30331808
      3331.96013252
      5088.96179484
      -315.60552887
      1370.40220721
      1019.95675357
      -77.47561940
      2101.01547293
      3487.31239330
      2815.15059820
      1062.49020469
      847.14714998
      2908.50419224
      3843.30626268
      -2049.39556507
      1422.14569998
      -140.97840856
      -661.66732965
      101.35768351
      -560.01660927
      940.64879312
      739.16360921
      5610.50102829
      8773.36230406
      6680.19944995
      4501.10470933
      4307.39177039
      2354.62570092
      4986.21505717
      2119.01142706
      7106.19274018
      -2839.87995768
      1164.43793691
      3055.96770488
      -895.17476682
      2666.90789846
      6963.73995416
      735.45386951
      2632.63262272
      2122.26561160
      8824.30663028
      374.93121613
      -2370.83266111
      342.77244069
      -929.79649619
      447.88671925
      13183.51703410
      5118.01660862
      -1920.91625352
      -450.55805026
      5793.16228457
      4725.88047508
      -3050.87742459
      657.07680032
      5936.77708831
      2882.47028168
      1348.84752162
      -1921.57193728
      -1340.54839035
      653.36036713
      675.12991955
      2310.04871414
      4564.77573555
      7899.95221716
      804.12658865
      1049.62619225
      2513.56907555
      3624.18873577
      1258.26718231
      1647.26488976
      2096.80989642
      3610.14725259
      1105.23872213
      5674.91751763
      5325.89970891
      1644.41415361
      -172.62515871
      1038.27008408
      1559.91478024
      1394.91324150
      96.43629578
      691.69355779
      839.07108085
      864.77925206
      -752.66486636
      -1751.99066134
      262.81968010
      427.56273888
      -28338.34729544
      4191.45590245
      2390.70537722
      -27.14066669
      433.81300219
      17463.77116861
      1943.35349981
      3385.59205937
      4286.92798761
      1603.42814621
      4083.15980830
      3988.64895680
      2820.34667255
      921.84599485
      -2279.46123768
      4201.08475748
      2790.77569012
      -358.94701674
      -1551.61578700
      2612.25408208
      3020.09479263
      2485.82096946
      1572.04806153
      4058.63337166
      -2804.70272269
      4571.27811831
      1944.66026091
      10562.12673546
      2957.68361241
      1989.91561989
      2903.13856456
      7291.57098464
      3982.11300461
      -3393.16984905
      2119.04949840
      2415.77385435
      102.52547650
      6773.93648059
      -1035.48231787
      -826.11060508
      3190.93543058
      3609.19667299
      2928.80435371
      3552.02657716
      3196.74620023
      3358.51420355
      1858.79772983
      494.96650909
      -1396.86234808
      -232.75462082
      3924.86682861
      2048.15725522
      1709.86481023
      1387.14066154
      1622.80376497
      2692.61674797
      324.17045073
      -507.30862684
      180.08366135
      -600.90765438
      2112.16814419
      940.14288866
      76.05613853
      405.15230833
      -29.91480519
      741.38871580
      1605.21475670
      5537.82816074
      3730.80755131
      6861.51036931
      7827.21972084
      3165.25885812
      4159.13330897
      3880.23095608
      4275.36411840
      6358.32549313
      -2764.23769627
      2707.58855009
      3668.97622185
      4154.61683256
      6821.91984664
      1519.63662057
      1108.56819715
      -510.83291690
      2219.51836529
      -1626.73060962
      3008.85243099
      8564.25350304
      7138.86446515
      10423.21273994
      -11152.43579571
      -1517.28428475
      5092.91011904
      15717.87222131
      -6742.36866300
      1033.96745148
      4475.77326904
      2617.82479090
      3499.64502318
      301.71285807
      3292.38950941
      2304.63815954
      1054.87376821
      -3.62845312
      3032.31311222
      4590.27577883
      844.12707711
      4224.23345037
      699.83556067
      471.47976471
      3107.31125432
      3939.36539804
      3597.61442020
      -1525.57549449
      -1185.53497243
      1759.74410069
      817.12010008
      -689.97110940
      348.22218111
      3357.19262435
      1692.40209474
      435.36328391
      2776.85073312
      544.57560466
      -41.21664690
      -1127.21266849
      -311.09037791
      -1369.01162220
      -396.26682252
      2157.24092567
      811.49679329
      -203.60494119
      10747.91696768
      6538.64729247
      4244.78163955
      1854.37261187
      3953.29966804
      2489.16493666
      4740.77137360
      -748.86143488
      5363.31946328
      231.95402751
      -1349.93838059
      3870.51222069
      -4959.59829806
      12838.70751617
      1589.35376503
      -1939.12100851
      -2677.22548579
      -2104.41280208
      3479.39766641
      3734.15898786
      679.19964090
      2631.67956229
      -2527.21785059
      837.13820667
      4490.36894942
      12400.91215888
      1938.26993015
      4712.75441948
      287.34185237
      3583.09190362
      3468.65455849
      1979.66761555
      2050.63811065
      -4444.40498950
      8539.82611289
      6520.11014569
      2322.10315531
      -1856.09959930
      -2498.61296448
      2350.46938052
      2555.98887867
      614.01583630
      5114.59788235
      2158.56441292
      2762.88971326
      1479.16904534
      1583.37368037
      -1025.83576329
      2349.06564958
      601.99955642
      2288.58002637
      2754.05702584
      3755.44242182
      3777.32053096
      2160.70534287
      17.96521333
      1677.57565737
      908.62964428
      -1655.91549369
      -1044.12050737
      1277.03058760
      287.00704038
      -951.94470402
      60.43216894
      837.75125376
      1503.09416868
      -30962.88851667
      9414.01627829
      5411.94735615
      9198.08435154
      4920.70785250
      3245.31888246
      4270.28685230
      -2021.21847231
      -2126.90178798
      4061.75859954
      3452.08821321
      1000.24960942
      -2503.25567931
      4881.60083640
      -1010.54289093
      6823.53324494
      -305.60573239
      3881.75748738
      7424.85108335
      -1317.26156140
      1653.68097117
      541.36700330
      -1428.70642057
      -2053.55314245
      2519.11961665
      12824.07487336
      2746.37415414
      5354.92736103
      2447.14961469
      1552.06068813
      1959.16718565
      2226.61667374
      1285.50507227
      2164.12634306
      365.98969564
      1732.32656041
      -693.06487962
      -2203.54020581
      1803.92068492
      3804.33290479
      -1194.85390398
      3438.70175448
      3294.89593853
      582.36547964
      1936.64363010
      -3801.05527795
      904.32297514
      511.41981728
      1211.99316969
      -82.84477962
      1689.18953611
      2419.45942334
      910.96817107
      1336.38340606
      1318.18117041
      2304.62230382
      1582.60303074
      -881.32530600
      1310.58365302
      1932.48999550
      2807.03328543
      -1325.73973418
      -617.39272246
      -752.59503054
      164.86089822
      613.85086774
      -19317.15986296
      5302.39507096
      5521.62070537
      -5069.97247393
      2115.40334037
      3660.04846398
      -621.21865774
      -2234.89729489
      3749.89166016
      5149.90283112
      2271.18516824
      423.60048227
      4119.69662434
      -2948.59241649
      5804.53694774
      3339.44138955
      2135.75288836
      1448.28365815
      2585.25792486
      9616.39080681
      4158.21539872
      6191.21330233
      5061.91518777
      3323.65267681
      -2699.26135367
      -1728.09386450
      3322.53654992
      4700.82512893
      8248.37576502
      1019.94590101
      2235.67022767
      -1020.48376146
      -1252.44370988
      5333.57090116
      2312.99110314
      -431.68329647
      2503.67413395
      1172.47850854
      2417.35468114
      2047.45805814
      140.51900591
      1132.25302858
      -464.27360896
      1982.84032323
      4910.09730793
      339.39245559
      96.11002015
      897.52472866
      -977.63314479
      -888.63868377
      2360.15601293
      2921.63785766
      2617.54753215
      1910.59330349
      1309.13620781
      1641.27360928
      893.50192676
      483.49781805
      -764.53839545
      -302.84995092
      1589.03622180
      -2160.41209997
      -1687.97388258
      466.63070430
      192.90781024
      203.99524273
      20117.90020237
      7057.27244093
      10676.26829700
      4544.04062869
      4164.73735335
      7134.38662925
      -784.19040847
      324.73674039
      1653.36905629
      -3371.09901895
      1511.64019266
      4002.60007266
      3362.65586237
      5248.67823510
      2602.24780608
      -5581.34120947
      5818.42780357
      8301.11341598
      9375.60512986
      8650.03533374
      -4798.63121786
      7491.28096589
      3240.39814883
      9631.63841091
      3445.60618919
      2144.30761521
      1832.74085293
      13434.25363682
      1629.71851266
      6619.80187340
      993.86835011
      4237.94356392
      6070.75538057
      4825.52415424
      -8406.13258228
      -786.11109304
      -488.74058272
      1879.52636881
      1621.74618530
      -1480.90968245
      2763.67963493
      -805.46162349
      2880.24547674
      80.60473813
      1606.12720767
      1402.11618095
      3508.12719259
      1623.28500764
      2312.90677801
      637.76824655
      1582.96001800
      735.29823449
      1967.96633638
      2580.34837589
      1168.65840122
      -1133.13421053
      2119.33425217
      1434.53856819
      898.64660022
      1682.14942450
      1084.18426733
      -1835.29177692
      -1334.19821780
      -1215.50839176
      571.21863442
      808.36427004
      5365.18579715
      7088.52147423
      4165.95998092
      11771.33037150
      2631.43747774
      9366.22045442
      1711.45451720
      2331.44476589
      8077.83773362
      9435.18351935
      9634.08604853
      4656.63492916
      2762.92203266
      2899.25547666
      10533.28407414
      3976.40077599
      15228.83454439
      14613.57643613
      3545.79435637
      325.85986756
      5141.21241811
      10428.94765195
      17737.30010168
      4259.73650496
      14839.93793605
      7305.30323610
      1479.30764393
      924.95475180
      7051.67120483
      -314.78868702
      9659.99686168
      4170.99853404
      5844.77153841
      -3746.45825829
      10159.66115016
      -8408.21277808
      1401.27291763
      4672.85104458
      4134.65357788
      3254.07869468
      3225.04672102
      3341.11628155
      -855.33962225
      693.41244039
      -104.54310903
      1947.29519911
      -460.78019684
      -162.92269178
      2582.05731051
      908.41894357
      1044.71872647
      -1226.77949684
      545.99849405
      -674.27551798
      1357.43051584
      965.97111531
      767.30478734
      783.04856680
      492.26123125
      2032.21230652
      334.90973822
      -1454.57269134
      530.23894398
      1102.29275739
      -1697.27681385
      9285.44445566
      -40161.08078057
      6055.77270041
      3485.98579281
      2577.54769641
      7449.41030203
      2772.69975138
      11558.24097143
      2726.00844327
      5438.88532207
      -80.06375796
      9072.27465423
      9842.12106466
      -5745.92562918
      7566.69144612
      7033.39134236
      11507.55916389
      1443.49697418
      9111.34285658
      9204.77032437
      15361.62684825
      2791.58137033
      4141.70642240
      6758.43816411
      1923.62106464
      780.83673166
      4177.87605828
      803.17899172
      11146.48549755
      1924.60158316
      7357.61686078
      8021.81506771
      -711.61406226
      9657.07627173