<?xml version="1.0"?>
<VTKFile type= "UnstructuredGrid"  version= "0.1"  byte_order= "BigEndian">
<UnstructuredGrid>
<Piece NumberOfPoints="5123" NumberOfCells="5123">
<PointData Scalars="Pressure" Vectors="Velocity">
<DataArray type="Float32" Name="Pressures" format="ascii">
      -8799.67519380
      5964.17906402
      11175.15393142
      40289.84163734
      11722.02442082
      22414.69894301
      44023.38876338
      20729.68153262
      30433.23417159
      27905.26452824
      10465.88606230
      29644.56127949
      18598.12777598
      12657.19896597
      32345.99323269
      15497.95282609
      22268.78968862
      17843.12227121
      5384.85181136
      21434.23144632
      14514.51027025
      5120.87774771
      21009.16707999
      10634.62402402
      12272.83089284
      15156.63524982
      2201.68524199
      18111.79538276
      10845.44142454
      4226.90036542
      19575.78823565
      6536.95569259
      10676.22700258
      9555.10824322
      1235.05896693
      10650.10521799
      7004.37697314
      525.80724790
      5961.16824398
      6198.68518666
      4715.18791566
      3932.68376295
      305.15589422
      3304.73297318
      2356.55329425
      2353.78255434
      2068.96510926
      -484.81771176
      1426.20858102
      1676.71706850
      -113.24597272
      1143.74807858
      899.20367095
      795.88921628
      759.97290279
      -1156.12460611
      460.61092106
      313.16682002
      568.97719608
      -637.89415896
      -1315.04065544
      385.59581353
      -152.56609581
      -1069.86269175
      -483.12401929
      -778.21819985
      5953.64992181
      6208.98538751
      8894.43130612
      8863.30940301
      7969.03480795
      8256.35773393
      10615.14402058
      9141.83669294
      8185.12389331
      6662.36283856
      5591.25483620
      6287.23800938
      6566.87614001
      7548.46447375
      5461.31160110
      4889.26639866
      4111.74018338
      4132.12233347
      3738.95775555
      6134.73056623
      4224.11042311
      4237.86645823
      3277.18720853
      4554.35282174
      3047.19117737
      3199.16462244
      1882.10393424
      4471.60797595
      2566.71384004
      1179.10693805
      3876.35202966
      3178.65397363
      2584.82920611
      1791.52284922
      33.44308735
      2384.23436936
      1190.70003094
      100.85390516
      2602.54729144
      1031.83540090
      -315.15068583
      49.99652438
      28.79857219
      650.49239747
      152.52091162
      287.82586465
      41.40202414
      650.08499422
      387.65951288
      77.86190574
      -1484.63617485
      243.48542360
      -281.66130111
      27.23389728
      -545.82549853
      613.28829088
      -154.04048932
      -221.04671116
      358.79571591
      -147.44317077
      842.60626842
      -79.26106330
      498.50496052
      -375.02572070
      1007.86708129
      23.38280017
      8231.72194170
      10585.52666213
      13842.50123889
      6073.31403039
      6160.33996109
      8667.30588360
      5452.73548661
      1665.29848269
      5219.67825610
      9842.02401300
      3911.73961505
      3416.03816240
      7323.97529748
      3220.15781673
      2768.76759224
      2365.46503811
      5585.35131349
      5212.80089140
      1915.63576368
      1549.50488856
      4418.79835937
      4267.66530364
      1837.41916417
      2643.87287354
      4394.54205982
      4042.55344099
      2481.16915254
      992.88865434
      3684.60964907
      5039.70676171
      2204.69143373
      1713.10087399
      1633.72369623
      2343.32173022
      3973.22031948
      50.05298626
      2236.28704397
      1197.60819392
      276.66618411
      720.88479310
      479.56720599
      967.78749445
      1086.63793078
      -255.04954556
      61.77756127
      -551.23083533
      48.83744358
      994.07148142
      -632.53809825
      611.94203431
      -684.44048069
      -1763.74172476
      -416.73317251
      -909.53824321
      -283.88193619
      -440.82916318
      -931.03286043
      -445.04906948
      -1469.24630193
      -736.17572934
      -186.40305695
      -1629.59579785
      -195.18296357
      -1037.06582403
      -3291.28123765
      -117.27415916
      20276.33966735
      9844.17485305
      5581.52559714
      15402.58472022
      13730.00856355
      4735.74991994
      16289.62307127
      10394.49957310
      10788.49373124
      9307.98859810
      10337.72075396
      14351.59001748
      6397.19091431
      3377.10765915
      12042.83753337
      8549.27267970
      15.60655970
      14369.90591457
      8413.97338949
      8694.47333106
      7736.96916561
      294.93172937
      9892.00514591
      7021.94180928
      3096.38235301
      7600.70282045
      6232.55493869
      6687.87306063
      5216.80195147
      -1485.28852683
      7227.82384464
      4747.32226744
      1893.61848699
      3660.05987702
      1527.70820485
      4174.80160640
      3190.84526543
      1393.06677274
      3132.29563841
      2060.41170680
      2292.41727623
      1369.13129960
      -1552.07074005
      2852.90402468
      1316.69665171
      602.62539856
      888.61853044
      -125.29924313
      2033.91336207
      375.79049527
      -445.99653604
      794.39582468
      270.21723340
      129.48249597
      -572.12106759
      -1224.38394099
      758.37690358
      -15.57736872
      -412.52437592
      -405.25974533
      -275.93581580
      374.83275454
      -205.17539139
      -1119.47688675
      155.66049464
      525.77537419
      23674.06996233
      13853.08676422
      1443.68841305
      13316.19389707
      12181.93204526
      1271.64729962
      16298.33168582
      13157.15929251
      13130.56951287
      7290.06193694
      10745.20077277
      5800.00250621
      6160.33678954
      1036.28475216
      8458.54194559
      9734.19407188
      1295.30691174
      14298.35493585
      1540.42374356
      4815.99953029
      7961.05344886
      -2025.12950481
      6699.02289808
      6305.34924110
      2663.29427081
      6091.87017906
      398.77829666
      3561.63790863
      6831.20352845
      -656.42292237
      4966.40728276
      3585.05817189
      2680.18583685
      2467.73312311
      1454.27381964
      2695.11821635
      1925.44019082
      973.67868002
      2008.64410536
      734.26198800
      2222.95718869
      1299.61990069
      -1115.40558699
      1214.37855701
      1219.68508034
      1183.63291053
      916.73532591
      616.00767158
      533.62707771
      717.76778607
      179.17835957
      -16.28499238
      -19.08500360
      117.32845201
      -150.28275720
      -695.19396802
      -368.60820117
      26.52527171
      286.98534750
      -447.67401438
      -69.14472434
      7.88082171
      505.86960992
      195.23442848
      56.71621257
      21.17865168
      22635.45429044
      13106.00135171
      157.99853096
      14138.30626852
      12849.94680354
      2375.70786086
      17634.51090290
      14161.89394807
      11756.64665816
      11614.93809971
      -504.83100003
      11781.91287405
      10574.16047146
      -1148.24241748
      10461.20888091
      9970.36979229
      2766.67491535
      14733.32771259
      3055.98419391
      4832.00400403
      8484.65067655
      186.51676251
      5924.70894903
      6927.62458865
      3413.09455783
      9690.41648150
      3042.59747172
      2712.05405023
      5945.07894337
      95.76890496
      5651.86169312
      3913.77207437
      1827.66515254
      1699.81265764
      1913.58678141
      3571.41497822
      3673.61959774
      736.37400028
      3819.75691227
      1239.41281170
      2280.85107767
      2252.83937320
      -1669.92319512
      1794.21793899
      1442.68695693
      736.47750488
      1551.81787762
      476.79893360
      442.84682952
      666.39490505
      -180.00759395
      191.79120028
      156.28049518
      419.80666146
      -106.54344740
      -1185.42344511
      -196.58152768
      245.57526741
      204.59173018
      -121.53430846
      -154.67335203
      -38.61499623
      459.24637034
      -135.37954361
      -116.20513695
      89.64884691
      17781.94237187
      12456.18986012
      2625.95408254
      13580.18618299
      12268.41283810
      507.73715353
      15054.11913520
      10129.93610284
      8649.22460468
      11615.08784058
      -1126.20326068
      10037.72891760
      9228.64768158
      -3872.92037856
      9340.84513060
      5709.16552445
      -4707.70641340
      12287.23800962
      5575.63373800
      8146.17171607
      6964.79399461
      -4379.27195303
      7358.00326197
      2865.62376319
      -333.03249940
      8044.69929096
      4671.28773998
      6196.02855299
      5949.83421331
      -1986.85572043
      6707.96833303
      3968.12593600
      851.79957652
      3464.50438524
      393.01863300
      4122.49836881
      3205.09081328
      201.20827246
      2690.86757203
      1945.06341424
      1059.81182106
      1967.63635667
      -1507.75828779
      2357.13863226
      1331.63618657
      -642.26172664
      703.21024135
      299.34465037
      292.40330750
      9.81892695
      -589.69003810
      -139.27668130
      -390.40855476
      -650.46032260
      -208.11870497
      -1212.10065365
      -124.03787271
      -179.86481774
      -524.49832266
      159.47794157
      -98.27987336
      181.89111343
      239.74938351
      -273.03672656
      96.35089656
      120.10053192
      -3968.65662143
      1204.45131021
      18672.23986144
      1858.36758949
      1671.69492846
      8079.77653883
      726.22224045
      800.47548189
      3919.71760770
      243.78423578
      14773.52717979
      -849.33119140
      -1684.94196033
      5558.71149126
      -4183.43457677
      2538.86304567
      6739.64778416
      -603.83489934
      1967.41292374
      -2450.19844083
      290.11241062
      3818.70299960
      -2797.20586617
      1181.64825836
      1589.12847440
      -1361.26288013
      1747.38835991
      -1452.89840520
      1721.51316634
      4068.40073804
      453.86599232
      1560.53720070
      -222.66716353
      -671.57407727
      3823.27959934
      -2701.11391976
      -145.56852309
      1195.29962633
      -649.43981815
      83.61491810
      -830.55070866
      -551.81625365
      1862.69545010
      -1251.79166111
      550.58429062
      767.31265662
      -728.89990996
      759.46306066
      -1520.01482051
      -179.96455411
      279.17679067
      -894.41953395
      -499.85482391
      -838.44164916
      -740.90543567
      521.88061427
      -919.36876178
      -240.54613477
      -99.80099272
      -632.17766329
      -57.73436887
      -520.68067208
      168.20910143
      191.99724227
      -63.88931423
      165.05732814
      17148.03491013
      12217.16415407
      1944.55978362
      13274.52935985
      12024.78506489
      1647.71681851
      15139.43198474
      9647.32981731
      7873.07395238
      11210.72977271
      -1640.61497566
      9260.64902148
      7483.45911925
      -3358.10681356
      9420.28452108
      5208.60073379
      -3041.27822847
      11995.42948802
      5080.32629330
      7468.43459573
      5995.10428685
      -4537.95732321
      7598.69172505
      6143.53560495
      1633.40660735
      8448.35821564
      2450.16861682
      5845.60539259
      5970.09117025
      -2691.58350673
      6192.67649912
      3094.47374775
      347.54127434
      2134.79996920
      -157.90593137
      3784.89725217
      3201.88030771
      -377.03470337
      3395.82079652
      2068.09460494
      1154.99253786
      1887.45967320
      -1608.86205640
      1608.62764867
      1501.06968810
      -746.09770318
      700.03675391
      33.21013281
      384.54825809
      14.43732432
      -695.03246696
      -157.75254712
      -530.69978481
      -643.11710949
      -349.15570610
      -1035.24981093
      -211.90876622
      -43.29700303
      -598.30719496
      28.43553333
      -138.39319554
      149.54001404
      225.49713872
      -171.64446443
      186.17313636
      126.84309744
      19842.24645073
      13688.06727866
      -998.28736005
      12637.46772398
      11472.93701186
      1925.40106084
      16364.25246974
      11437.26526551
      10516.23355569
      8915.66132469
      -2165.43955250
      7972.51230860
      7691.43841689
      -1157.35390038
      8807.02874179
      9023.74017295
      1329.94810568
      12581.42303321
      2335.02160107
      6444.99415536
      6927.75220384
      -2289.34681255
      6133.89953901
      4920.50528961
      3012.53980182
      6217.48678032
      1036.36240425
      3912.69728380
      6289.69089175
      -295.89089649
      4635.49390093
      3707.43647215
      1229.82465751
      958.79844283
      1938.56593683
      2325.93366762
      2574.42374251
      1035.70952784
      2258.28183938
      738.09141181
      2416.95572824
      1183.28306957
      -1239.23173542
      476.19957523
      1141.99129017
      793.30430847
      248.47238758
      594.85928587
      -262.97044637
      633.26689465
      -448.76599540
      -75.23454488
      380.83652465
      198.01483479
      -709.95732943
      -1334.93087715
      -569.83632239
      210.68178755
      246.82546440
      -327.76322353
      -181.24627917
      -34.37158598
      552.70995312
      -66.59372455
      213.44349695
      192.11317539
      20663.65992693
      12251.25006633
      42.48926245
      12140.22321185
      11111.67485138
      2096.55047325
      16069.50091224
      11948.98458887
      11051.10485543
      9036.30743790
      -1258.25256294
      7573.22255051
      7029.61060161
      -752.15182608
      8665.05884194
      6816.48941794
      985.05734639
      10778.38882151
      1480.45901693
      4039.22576635
      7011.14691101
      -2827.57972477
      5621.24925452
      5436.25802825
      885.64563352
      7486.67067876
      324.35470645
      2476.47782873
      5819.89561483
      -1257.02964117
      4199.27723045
      2849.02220362
      650.28929662
      883.79069108
      1325.49847985
      1726.08798625
      2404.52493214
      733.32882904
      3075.89178467
      573.16308564
      2126.53057758
      1164.49736911
      -2435.36443318
      393.24691890
      1271.43630700
      551.36657832
      348.75986842
      452.33840446
      -549.89716993
      344.48982229
      -456.25119854
      -244.17920742
      216.53153380
      81.97627960
      -967.76545484
      -1652.25801441
      -540.68564386
      191.47194187
      389.48731915
      -462.62240589
      -223.52524230
      -148.73397031
      481.07828277
      -32.98254348
      97.72585812
      216.52936508
      16319.24202444
      12419.48275080
      726.51883875
      12520.88547456
      11126.83539362
      1727.97247199
      14385.22447162
      8161.94068159
      6694.23336551
      10134.60478061
      -2419.37233945
      7718.34236948
      6338.59354721
      -433.95223389
      10574.97556730
      8054.40567939
      -1396.78425817
      13128.61941669
      7238.26862183
      7142.33381143
      4489.07567007
      -2653.98047013
      7492.36735944
      3069.50661486
      -1428.76625279
      7336.00336130
      4444.27618462
      5963.82563137
      4317.55300659
      -1828.19783184
      5556.29106969
      2521.72040076
      -627.63260248
      2865.55470121
      277.38107912
      3774.05710070
      2984.76409597
      -147.02711464
      2271.31727449
      1645.50791350
      773.31721558
      1827.45522525
      -1488.57859097
      1816.04489587
      1285.87340394
      -653.12912199
      859.87123023
      -287.39818768
      151.81581633
      -187.57901332
      -473.98066718
      -327.73344683
      -697.54421636
      -991.75745159
      -634.42540039
      -1540.77011069
      -413.77723775
      -239.10425662
      -575.54609600
      174.96459785
      -232.97406139
      204.54261466
      139.64302936
      -110.14277958
      185.74380055
      124.55353691
      -7456.35695304
      44.73002571
      16568.34186087
      1210.95459828
      1575.76808738
      6919.57169127
      -350.18988502
      772.55207055
      3141.98473975
      -1345.85925539
      13540.45991539
      -1895.59427915
      -1446.68382470
      6930.59947559
      -2091.22270741
      2345.98884004
      4610.39504561
      -894.52588709
      3909.84146736
      -936.42871314
      -70.56538998
      4359.06232965
      -2044.50297497
      2140.37423968
      1715.75056360
      -1871.24084035
      1269.97890907
      -1363.58123062
      573.81877701
      3194.41236652
      -1000.93606594
      556.84220594
      -567.72554156
      -1620.35786963
      3073.23183209
      -3011.42830541
      407.80812477
      1186.78818602
      -1224.44083005
      -560.98602526
      -727.76832015
      -1330.98665750
      2043.32238487
      -1423.63649607
      253.90606939
      749.07623947
      -1279.14038871
      753.31482416
      -1650.01954485
      -621.76761653
      129.22174211
      -1400.98252961
      -907.36030244
      -1137.52563096
      -1328.99428308
      724.67975551
      -1489.00034946
      -650.23747867
      -90.45739370
      -723.81065027
      100.09277532
      -448.70576745
      188.01320459
      70.67982709
      10.81906178
      78.45541012
      14849.04178579
      11442.74803766
      1048.05040323
      12023.17276685
      9521.90800700
      -362.17953604
      12862.52434875
      8150.13044652
      6802.39276801
      9710.62832352
      -2842.19779684
      8055.03147008
      5604.17727561
      -2284.63683918
      10546.44647378
      3955.42193013
      -5193.85193340
      8589.87658806
      5676.27614869
      4569.17696811
      4795.58589271
      -3197.29781461
      6723.27583255
      4883.75859888
      224.86125804
      7065.53940398
      2286.30787979
      3883.25164475
      4537.15385368
      -2840.45544397
      4926.29925149
      2265.10063687
      -178.67098157
      1824.33503596
      -190.14863805
      2441.30128631
      2714.87702586
      -65.02429741
      2307.35118020
      1400.75391857
      877.74359270
      743.87413765
      -2480.30566567
      1184.50640989
      938.11690307
      -816.66884646
      183.30491941
      -337.06411850
      -581.42796079
      -335.84808385
      -576.16833309
      -770.34769782
      -482.25814550
      -645.36663895
      -660.48794480
      -1734.83621974
      -567.65403944
      -297.56405606
      -374.20347575
      -193.99668174
      -117.55933286
      21.40278193
      200.68416019
      -11.43660387
      76.07416096
      96.02570013
      14095.69749099
      11753.38264236
      -1175.10080454
      11635.07648530
      9748.01406697
      1221.14186323
      15763.01429249
      6819.54810275
      7553.54607724
      8061.77436554
      -2552.86803811
      7737.87072338
      6407.26313010
      1066.10851032
      10396.45615495
      8158.99734244
      124.99196760
      11434.02190671
      5294.94769785
      3873.06545383
      4760.91313980
      150.14002627
      6502.59102503
      5799.93676892
      -518.16217927
      6956.44947043
      2156.66747394
      3662.97366528
      3815.84693523
      -1609.55750246
      5164.51376370
      4598.53082843
      -1210.57622991
      2781.07341828
      1127.01572082
      2149.45071766
      2671.96459916
      -105.67915536
      1931.81440415
      696.76152807
      1811.45190299
      347.95398231
      -1790.60942098
      1044.40040226
      502.48604524
      -549.04753865
      501.30620809
      -370.77806569
      -563.38629523
      -85.83162627
      -653.09133776
      -968.16998687
      -681.53344178
      -971.67652860
      -782.53786984
      -1787.43725541
      -766.42031530
      -396.16988123
      -512.47854360
      -62.30972974
      -145.94671305
      25.61031378
      88.86655809
      -29.95838475
      106.36944386
      100.74577297
      -9234.28583575
      -1138.10630629
      16804.04144267
      918.69857184
      -190.52812880
      5228.46892808
      -1156.78085595
      6946.82331736
      -552.00348950
      -202.36313114
      4368.17263732
      5997.43496676
      6251.54575147
      2104.62616414
      -781.30659543
      5712.03911007
      1025.00745079
      -2271.91256618
      1744.86704717
      -1404.44090461
      3685.75422319
      1426.87472956
      -1569.58667961
      3286.07615013
      3118.13652608
      2075.73814549
      2588.08434202
      -780.89962945
      3736.98685328
      355.15260479
      -1348.04632190
      1348.36771453
      2016.60036629
      1777.15683455
      2561.01102379
      -2727.44635368
      1445.82858097
      1364.47793364
      485.52213401
      643.06642665
      -713.00396747
      1115.12386547
      219.44779233
      -1831.43375908
      971.34957077
      -411.74709235
      -1621.70497669
      565.98904243
      -2327.37683481
      -534.58101428
      537.53771471
      -1689.63580437
      -891.17800738
      -1077.70208673
      -1485.64248907
      784.52111783
      -1525.21349776
      -711.10623051
      -44.83789105
      -844.59990943
      -8.88331024
      -581.73574987
      140.43361245
      101.19155487
      -78.76395246
      42.95406390
      13600.68618615
      9802.38656880
      355.67315517
      10906.30750367
      7339.55240966
      5435.02822908
      8070.48434568
      -1420.70624262
      6065.91829947
      6845.85000329
      -1725.30295516
      8874.44776285
      4012.33383949
      3125.61774692
      8237.69045617
      -320.98952898
      4960.87296260
      5465.43369585
      5675.07604523
      5679.39327144
      -1458.39361944
      5490.44391347
      5205.94509584
      10.03944828
      129.32919462
      3713.13432280
      8888.05678023
      4139.34267856
      113.93459864
      3300.11089260
      3745.59106990
      -393.65187972
      1664.33302912
      1563.76658921
      3025.53203760
      2446.52476142
      1145.23982081
      619.76107160
      775.03485017
      2805.81657234
      237.63423921
      -230.29740309
      53.75583552
      1162.25916191
      -313.54119572
      -745.74333448
      -291.58532867
      -1788.77371386
      741.57720739
      -417.84431762
      -515.62687170
      -919.89331732
      -1026.94508950
      -1481.58374542
      -1208.20525339
      -1570.78265185
      -744.16564203
      -561.42917506
      -807.30016625
      -40.07602626
      -347.05491685
      19.71507760
      -15.64007791
      -73.96801623
      199.03000610
      129.48287274
      13522.13202115
      11410.62274232
      -2336.02942292
      10256.97449558
      6981.87064730
      6414.79919691
      7526.87238067
      -3568.28902631
      8490.34084657
      5627.98830555
      1662.07447660
      908.68734419
      -392.74966025
      5885.89138224
      3404.24542126
      -2053.48951449
      6298.99768335
      4681.24753870
      3445.91712064
      5115.13442196
      -2216.75645561
      6477.15362343
      3160.43615809
      1215.81731775
      978.22059869
      1389.94423368
      2782.01095589
      3538.02313719
      -1400.20705422
      4254.72996276
      1358.58949460
      2238.76297757
      1800.26094626
      -2257.61861101
      2591.08423104
      338.93137436
      203.59363343
      2116.09117957
      -59.75240033
      447.74896114
      1198.32662865
      -2996.96891777
      1478.30349372
      -823.72865240
      -1193.28161780
      1034.46437202
      -808.64662883
      -174.07216593
      560.04676066
      -244.49352214
      -524.90981919
      -905.39132021
      256.47698807
      -546.28582788
      -1787.99603686
      -1331.25001446
      -1043.97243534
      -81.51843021
      89.11407761
      -547.53563039
      -398.44592091
      -213.68553717
      130.87837658
      -214.92227915
      288.69436595
      156.36494433
      17997.34932776
      8794.83741964
      -713.81230231
      9353.93349505
      7284.96529266
      -1148.14742944
      10559.16168064
      4001.71638106
      -659.83885368
      16322.68191330
      3054.85969833
      3292.87405550
      5793.84419232
      -3217.60476456
      5411.97590012
      5130.04925688
      -1603.13308135
      6820.21965336
      3884.62585773
      3927.27034357
      5036.99090764
      -3588.26828499
      5950.28227630
      3392.70055484
      310.19429889
      5180.01387828
      3786.96884930
      2681.02483248
      4325.40439747
      -3502.25575563
      3449.59177752
      3232.88857419
      516.97677988
      2935.83946116
      -948.16137248
      582.10157238
      2290.51032054
      -429.30109684
      1994.77773517
      1826.18668176
      1063.49817986
      674.02234696
      -3542.18028149
      197.56708435
      907.68593636
      -1164.67472118
      -246.86425268
      34.03760467
      -1307.79198044
      -307.53371174
      -626.44638369
      -703.28222647
      140.36778517
      -371.52840667
      -1666.50319539
      -1417.72487467
      -1065.76053562
      -205.21197996
      137.00864117
      -728.54213779
      -500.90928102
      -272.32806461
      228.17691404
      -265.29145828
      134.05012122
      143.55050214
      11487.52924562
      9903.00741367
      -1951.29797149
      9427.78260070
      8441.88409091
      698.26852589
      11237.77532165
      7115.49244993
      6190.55388280
      14569.36885824
      4368.67635829
      4031.63260006
      4333.15845320
      1079.51984715
      7594.59659553
      5822.73480790
      552.42512555
      8573.66285195
      4202.06747996
      2181.27329905
      4308.78945111
      277.99458493
      5503.11728407
      5070.78015507
      502.53488925
      6082.25905507
      4070.93665940
      3543.67163000
      3803.01481870
      -883.34197333
      4248.12341719
      3438.62863702
      -94.89726748
      2934.66779252
      1537.02130124
      2499.29604369
      1708.87667779
      -486.73104662
      1266.73398393
      647.56191648
      293.58148822
      -4.84374331
      -1569.92403961
      218.39812450
      -466.69840389
      -1488.65139759
      -135.17188188
      -751.70912530
      -554.89131726
      -691.53723307
      -531.53756288
      -1005.04455757
      -1382.74521698
      -2130.59932102
      -1226.85559939
      -1484.22973989
      -950.98244123
      -687.06817838
      -1139.94307133
      -227.29136415
      -447.81509564
      -66.04378976
      -18.51101362
      -119.82200003
      129.22581672
      120.83801223
      -12130.73368606
      -1108.64630481
      14046.41876273
      -508.71871085
      -157.57104089
      4251.83848110
      -1814.87760714
      6143.82839267
      -1337.50032802
      -2746.67707335
      5937.42204129
      3920.86574130
      4500.92791611
      1680.90546076
      -1641.92259025
      3364.02724407
      688.06259064
      -1779.20827283
      1628.19606818
      4327.88296701
      2979.26418065
      1487.98142752
      -1753.00310871
      2498.03753062
      1791.87471307
      -2065.50864652
      1261.04197476
      -1647.82753234
      -435.48254839
      3653.18123241
      -1562.38487968
      -20.98780473
      1576.10175952
      -805.55397721
      892.35012111
      -2637.52610306
      -103.76069837
      726.16446854
      -1547.40015468
      -953.68858890
      -353.56853590
      -1466.27093488
      1641.84249003
      -1260.37676682
      254.09279854
      127.91442782
      -1619.49099789
      474.27342028
      -1781.83108085
      -542.11238021
      453.34393624
      -1623.30288234
      -851.91540786
      -708.74126206
      -1201.77803837
      724.21639496
      -1411.64643481
      -506.40704700
      -129.85999986
      -942.13691452
      -312.84424841
      -867.36062582
      -27.78371110
      29.88997395
      -236.22669456
      16.30942645
      11001.80147840
      8630.40669058
      -702.24573164
      8507.27261940
      5216.87656347
      4122.77352257
      7839.41946851
      -1608.17033499
      6342.57880262
      7833.16584335
      -2078.48018331
      6537.50435421
      6676.79245130
      2116.78303761
      5737.16356733
      -1434.52384990
      2432.13898237
      4517.59765445
      -634.68113288
      4280.60481151
      4386.53137013
      2411.37005121
      4120.60910693
      307.03312277
      3252.51270961
      3067.34585999
      1769.04759641
      3987.73981999
      771.32099030
      582.48861109
      3951.39825749
      1665.68731294
      192.06598233
      2152.20600947
      78.19076664
      1317.60576480
      1882.11547545
      -389.43131248
      1018.17000256
      985.14859502
      540.01488807
      -255.11679828
      -2358.43342587
      470.85122199
      -230.09438360
      -1227.41310458
      -614.98529170
      -940.16256542
      -838.03210508
      -993.22556050
      -405.70736808
      -1259.42208356
      -1316.32277057
      -1622.39231379
      -1491.37473384
      -1468.27605956
      -760.94319933
      -767.15729539
      -847.41579467
      -297.29646575
      -398.36786658
      -326.38130162
      -211.70121761
      -153.26040990
      -44.77448951
      -10.45625595
      10953.32588715
      10611.29233727
      -3585.90090942
      8271.24472029
      5510.05964052
      5233.24859565
      6970.11930749
      58.66817184
      7857.23555584
      5724.52065917
      -230.35020182
      2266.22078613
      498.99338892
      5988.93705269
      3624.20677720
      -1784.34971068
      4009.57072245
      2491.17179920
      1745.28120738
      4005.48153898
      763.50675975
      4622.08013228
      2216.58645389
      -705.03784680
      3128.77796534
      2082.87573587
      591.55676184
      5050.28900829
      1028.00505628
      2427.20455172
      1466.94093740
      2231.45001217
      1591.90265059
      1764.88261889
      1523.17032809
      1384.72896140