<?xml version="1.0"?>
<VTKFile type= "UnstructuredGrid"  version= "0.1"  byte_order= "BigEndian">
<UnstructuredGrid>
<Piece NumberOfPoints="5123" NumberOfCells="5123">
<PointData Scalars="Pressure" Vectors="Velocity">
<DataArray type="Float32" Name="Pressures" format="ascii">
      85.70082578
      -18222.18859605
      -24619.00908378
      -25493.28008765
      -24261.99582305
      -28560.32273856
      -29272.80775739
      -363.64733896
      -53.75291546
      -23569.16128140
      617.25669169
      -22140.43487678
      684.24300431
      541.36600334
      -20993.64946475
      1079.57389968
      458.83324627
      -27025.94562458
      216.56956340
      -313.33320425
      -383.60801851
      1538.34169268
      -105.43960692
      782.46514045
      2392.78414951
      1429.79326964
      1040.51558692
      1574.85232277
      -1184.07640279
      848.63351088
      947.12142060
      1559.12871118
      -3371.12749778
      -638.99733132
      -413.15072566
      265.16742139
      2431.57352344
      -2398.19159818
      -606.98163928
      -1881.88479502
      -51.39664473
      -1082.58415275
      2003.96103134
      202.58760196
      -174.35690335
      -220.76947954
      530.84005544
      -776.93403369
      -3124.83883176
      -1306.55929250
      -2784.48445332
      -1179.71372498
      629.69499966
      1274.75289925
      -96.41033543
      261.68864077
      -495.41869055
      694.37057220
      -1021.63487093
      220.19359208
      436.57659449
      -658.44945277
      608.84757889
      774.92286748
      222.32288572
      -3593.63089982
      3797.99749414
      5389.50317142
      54.17892242
      880.00157872
      244.92342753
      899.39261371
      735.74094548
      666.40411350
      819.63972995
      1881.56456210
      313.11454153
      654.23700548
      252.17230273
      1180.61351684
      -558.00902182
      296.34932887
      1904.14614781
      -1265.81873756
      985.20519593
      -836.59960260
      1875.34128835
      1792.98808308
      -4599.03288298
      -2831.91199134
      2766.78887707
      2261.12648796
      1490.05631283
      -6137.04170184
      -2181.70770976
      917.19751276
      1896.77387578
      -4434.45269200
      -1647.94156698
      1137.01367031
      335.10864591
      16.46225199
      -220.07641915
      -1464.08702092
      -1597.40916184
      601.17398844
      2107.18349368
      391.56370298
      1428.46768543
      -119.07453619
      971.11958045
      -1876.19110924
      -127.58694195
      903.44365091
      1185.09648088
      157.85991285
      745.12132733
      -809.92151368
      240.82475967
      6186.08509503
      -15.17239294
      659.93672310
      988.26736663
      864.23280996
      -1467.74458799
      264.63189533
      -109.43792851
      -37.01301549
      497.37792120
      367.12934348
      111.00264569
      -442.85721525
      -24148.52814249
      827.52107270
      793.95746166
      10.72248402
      854.91571168
      1846.69248037
      3908.95724687
      879.40522911
      1138.48086033
      1985.28107627
      488.23090543
      681.43550780
      -909.85898366
      1689.25324690
      3261.47667027
      831.27261456
      -78.79786020
      1178.47756141
      1534.81095550
      -3822.81851446
      -5674.85672771
      -810.04914400
      1822.84941735
      3040.32511456
      3071.44457706
      724.01063238
      4556.40605955
      4451.59054004
      362.07230338
      2368.78590772
      -1008.65717344
      2795.17036247
      60.11895625
      585.98689961
      -3713.70961211
      -3927.49779016
      822.68222000
      2203.09824019
      338.21474620
      -2531.34004549
      -1026.66700969
      -1492.68432096
      60.92674682
      -1072.23270227
      748.33803630
      1346.63436842
      -664.92380140
      -1303.85805887
      -20.56362845
      360.97588096
      820.53964470
      -151.51734542
      1638.79341303
      -21.30510616
      302.63751212
      681.63658819
      46.02757377
      5567.07130112
      -148.16567821
      -279.97907038
      648.36487488
      857.32103781
      -110.21417056
      -430.05861523
      -1639.52940548
      107.27898715
      -18716.99888393
      1706.64104255
      1465.64445807
      2481.13630520
      4813.78690283
      1634.93028126
      -905.87845740
      6651.73719705
      76.37804004
      1247.48205871
      1555.91370988
      4828.14581681
      3344.54644744
      3951.83282091
      867.71682806
      4190.91685986
      850.80281011
      431.73714000
      4187.13095253
      2069.86390357
      1419.54154599
      955.21308136
      1170.68801425
      1869.80142667
      2823.32694034
      1909.21697733
      662.58611740
      3298.87196367
      1418.39063413
      170.49306689
      2078.27235322
      3179.01832235
      109.52235146
      -1364.54609961
      -328.62345019
      -2924.29188025
      -164.32008811
      -691.48242217
      3463.50958211
      157.08292656
      -46.87638158
      2494.52658751
      -663.68711525
      -894.94710925
      2886.03993677
      1103.18621527
      64.10645129
      -568.21701373
      42.83863813
      2.97809922
      -1622.80931566
      86.42144728
      -670.24242384
      -506.07422056
      820.62147582
      471.39990101
      78.42479874
      156.42917674
      424.64386928
      700.09297923
      321.19500397
      628.47461395
      384.15183816
      -803.81985440
      -266.23141069
      905.46348626
      -27399.67254656
      3018.00136766
      3450.90603053
      2696.92036597
      -38.62989354
      -659.04176017
      4575.81448638
      2181.85114039
      2873.77194223
      888.12797652
      3102.07904382
      2171.38975988
      -1687.58126102
      898.95520551
      -4389.13581492
      -1475.00979909
      -1171.07944914
      1998.40257189
      -353.12288052
      1517.33953171
      2011.92236486
      421.81294416
      1050.08939864
      1019.07476826
      1034.21824975
      2863.65255737
      752.32030110
      -301.21159509
      771.72064561
      1244.77955261
      914.86589466
      1507.24740222
      1124.47793936
      1479.70908001
      2110.23339018
      1434.35512624
      1151.50769394
      2747.83801614
      1965.91992649
      1808.60611775
      1488.31396913
      1144.63845040
      621.90013081
      949.98236030
      557.44640683
      -481.71825379
      1770.68704738
      239.05333026
      939.46857128
      513.58926326
      1445.91769652
      648.30502718
      -1398.56546595
      1289.29937377
      666.90662544
      406.37031533
      2937.89206669
      -435.88352565
      -108.05800502
      536.22336358
      -721.94159905
      1100.59088951
      -1045.02071064
      -269.69881673
      70.39407431
      -145.60022036
      -20980.90566408
      5182.06785626
      10818.27129168
      -790.85982467
      3835.22820975
      -1142.04268049
      2636.45551254
      5207.33387171
      3637.44029054
      5682.34594386
      2124.41197447
      2558.52615914
      1943.47554442
      1140.36076748
      4696.06874949
      2987.43642566
      1797.00562085
      809.18596617
      515.98527223
      2163.12918325
      981.24614821
      1721.62278246
      280.34974525
      1856.88907723
      7372.32084477
      5115.52713469
      -2857.47155729
      2748.41506733
      -615.64871832
      907.52028652
      -720.88182618
      599.98800420
      1329.64677746
      -1031.91551477
      -3495.33697839
      3715.39322841
      2564.60152630
      1161.87259121
      3693.23707894
      1908.23978168
      -8817.57859839
      5501.31730652
      -444.60474423
      -739.43486014
      -1367.02769261
      -488.71064561
      682.96828001
      2055.63171907
      2865.25560272
      916.11906574
      84.08718268
      1044.52108731
      1550.53724101
      59.25450182
      -2027.81968054
      1016.30715218
      -345.66214343
      -762.72952813
      -112.79245477
      -293.20535709
      152.42423983
      291.55707660
      2238.79117905
      2008.69637619
      693.84035965
      -1328.73601974
      1930.14797125
      9319.19804474
      1177.10595391
      4365.63808766
      5516.92805405
      3438.16778768
      2609.57200258
      2455.50074925
      6706.44528381
      8695.17682968
      4971.43109382
      2790.04698140
      1618.87552639
      316.09643302
      3487.08117264
      5737.01688616
      6127.88329907
      620.03280567
      158.29932125
      -821.38301644
      2000.05161332
      1466.89960596
      1941.62507707
      4079.92250434
      3867.67700102
      885.75800994
      1198.75914743
      8094.48879761
      1927.62942858
      338.93328850
      4616.08916584
      124.37053319
      4186.10895649
      -1476.73922063
      -2991.71672029
      -3367.79247435
      2030.91212270
      -1260.42252919
      1021.31356815
      1225.31487535
      56.26841008
      2042.55345497
      769.10856653
      -377.95767219
      1001.95866410
      -1855.96481283
      429.76463000
      966.07637346
      1204.49296965
      1065.76971799
      1185.41471138
      2258.28564394
      1329.83515065
      1666.22950976
      -341.34237657
      612.54545896
      462.14050544
      574.65211106
      1375.20878228
      597.08113367
      885.71087108
      -788.77339541
      118.91039314
      -440.56186964
      1152.94551739
      -2953.52070694
      5956.95131883
      1240.19393033
      5515.37484087
      -76.95074544
      7756.21781724
      3997.20470238
      6656.74096573
      5074.93008281
      1311.64274755
      5232.50062587
      4006.62522897
      4984.74596555
      361.52574490
      385.58958755
      -4923.87881855
      714.03808744
      3903.15368268
      3364.52674283
      3106.13994114
      8167.35418364
      2451.45589992
      4248.28618448
      -2462.72032829
      1577.80146435
      -1625.74552480
      1707.59937928
      -28.12118575
      664.03450764
      2454.14771805
      -2113.95894115
      2659.15339122
      982.21819172
      5493.67386782
      -1946.40564620
      3375.80712653
      336.13727583
      3330.92312394
      7196.82820814
      4861.37355343
      1478.90655980
      4545.12417478
      642.79683614
      -892.22689441
      -2320.00831629
      4757.99591087
      1687.09222413
      -1473.32163711
      -1081.04822052
      3599.71763557
      2677.33778977
      2202.26054767
      2069.61221352
      1609.62313231
      4796.53020517
      -518.50964264
      1982.64582467
      2727.62188442
      -701.69683475
      1138.11328289
      37.43325948
      374.05048269
      -1929.93643587
      2941.37790280
      -85.61886072
      697.48227944
      -48.83722492
      -21336.21804100
      15593.81721979
      10531.83013645
      12049.09205995
      9631.67168709
      -1488.69203030
      2127.26383505
      2339.10592433
      926.69643828
      7133.55367766
      -1995.27387896
      3793.60127378
      1724.22530382
      2408.35120056
      4181.91668412
      2084.15651956
      1926.44721383
      -1318.34868212
      829.25875205
      -2834.15384644
      735.85956154
      1748.94009436
      3270.93162227
      2099.72771473
      2406.59298213
      4663.29008407
      -2687.79065521
      1785.45167632
      782.68704976
      800.88213491
      3306.02207298
      478.27047542
      540.78480140
      764.91782345
      4632.90926301
      608.60614943
      1592.09014993
      -919.63721768
      407.09196754
      4346.61630389
      929.05383471
      3783.66279457
      902.53183934
      -1054.10820469
      2423.47155251
      1764.42958679
      7.75661663
      -10.12185241
      2098.66647344
      -365.36527811
      2091.69524884
      339.68643107
      -716.45532277
      902.87336938
      1386.84462496
      1703.99750452
      2904.95181554
      1454.17802403
      314.48044255
      -169.72141265
      1511.43103026
      1400.07831761
      170.96804761
      488.17460108
      -497.95601853
      -6.77155247
      10123.89040299
      12577.98149369
      3703.35501600
      -2893.62283320
      3590.45920070
      2054.28706532
      4294.28160599
      479.18381285
      1919.97084708
      984.49752859
      1308.86488996
      669.18334506
      1357.56898827
      2542.55386094
      3370.22887459
      1602.43390738
      1789.32702754
      2191.74454035
      1230.36058959
      1287.25830676
      4466.16854825
      1265.30925907
      2885.75996528
      2660.10789808
      4054.10229512
      636.36909093
      428.85699219
      381.53720430
      3689.06657659
      -798.02171087
      1152.11293777
      -5364.96154541
      1718.68483030
      1185.41321602
      1055.57800364
      980.64257019
      3743.20761375
      143.73339894
      1420.11127873
      -19.81081887
      1093.66345295
      246.68357610
      3000.10141206
      -3191.36500419
      2697.45716854
      1237.82880320
      2159.80392574
      2736.02308693
      2896.42929822
      1307.75420098
      1752.62875671
      -235.99425801
      4419.49396939
      775.73573635
      2146.17623356
      571.59134897
      2204.46695913
      3941.51991679
      2818.39348393
      2187.42552925
      246.71114375
      1152.41774595
      2555.46359441
      -505.75917583
      -1718.17660151
      665.13975719
      -18378.22992136
      -6163.53925155
      4156.06574217
      -2387.91386340
      -1052.37529756
      620.79651525
      3801.16142466
      791.62780535
      2435.64723993
      1334.13744224
      3254.17839817
      -2400.10168886
      720.23816941
      6649.34626644
      3258.83199615
      820.93975011
      828.64648459
      1943.55076472
      -248.81359506
      3831.22834791
      486.68925015
      2791.25768225
      -96.65944776
      366.03164781
      3702.69417232
      2716.58006390
      336.06977789
      2724.29713910
      2640.44627860
      1492.63471614
      2910.51454913
      871.34545307
      243.96882098
      311.32792138
      2004.95012383
      1050.76595036
      2473.63583915
      141.25594307
      2933.99194192
      6375.26872173
      -406.20175378
      4898.97588935
      -2022.63481740
      5097.91485973
      -877.01488038
      2165.27687307
      182.84292062
      523.73561709
      -1585.07052228
      3687.47575585
      2160.65224514
      2032.55984540
      -2643.49110438
      2866.98016077
      4752.68935365
      -335.69842816
      166.14897651
      1530.83919628
      462.24901769
      3081.92845588
      1122.76466821
      -31.78620941
      1.27358241
      -110.92016988
      1050.27038153
      -1412.69362162
      -11563.29241976
      629.87438266
      4748.02197158
      825.93145437
      4872.44519687
      429.52923758
      2985.56536309
      5920.94309447
      3475.96044169
      2443.02470277
      3982.66391658
      2921.95460318
      2951.97212762
      1864.93067809
      2638.46020900
      2549.90779007
      4592.83904232
      1890.72193231
      -2432.83492191
      -2594.38469719
      14096.57359180
      2270.96582719
      -1260.05775747
      4011.55005916
      5868.61659646
      1623.47089708
      5392.98394900
      3315.41198175
      5525.30192149
      -261.59847141
      4073.90315147
      1277.42102440
      8079.37205008
      5886.13936625
      3451.51410938
      -269.66561247
      3101.34828863
      7375.23820359
      5797.25994972
      246.98524926
      3040.28079499
      -280.43267234
      5671.93488415
      3768.16524376
      617.83979735
      2119.12829817
      3614.31449833
      1797.38439810
      1135.04869033
      1402.83421658
      -238.28188809
      1143.95473827
      2116.99894457
      5133.69507216
      1359.93617738
      1274.73759602
      1563.07914289
      1344.00046232
      1653.19560558
      -530.51689141
      218.75030646
      4132.30068782
      1273.76525116
      1415.36372984
      1964.97913345
      -97.05199681
      -2059.50705183
      3287.93573157
      2214.96934216
      3928.74683088
      2536.36379714
      2539.93802252
      -142.67052797
      1703.28812765
      3762.47369628
      1381.77709870
      3336.57076345
      2994.26944930
      -109.16857089
      7895.24477031
      2608.28283336
      1238.74521714
      12515.70210722
      8769.93196124
      -16948.09666224
      3761.13160164
      14643.35206947
      2228.51430701
      8243.24940070
      8851.79602818
      -2753.61988720
      5176.77939551
      13435.84248869
      1702.45454210
      2986.17061905
      14285.96875945
      7940.21137938
      546.10252621
      12169.32924285
      3099.38852438
      1771.12754166
      -948.93416022
      -4940.42551712
      -575.66604096
      8019.44161653
      21.77861334
      1652.16843984
      -2285.63923365
      -843.50843759
      7192.66610226
      4829.46072934
      5362.56940336
      8494.46578615
      5987.63167149
      -17067.34906279
      7886.99781360
      -2051.39168915
      -3166.40720993
      6848.41558717
      -988.05883368
      2350.62512603
      4057.70978719
      3155.16618216
      243.64507199
      1261.14531102
      -2949.11947301
      -6388.81356185
      -733.61419918
      782.08030130
      1333.44067370
      405.53126038
      2542.88919152
      -7886.36499036
      343.56904268
      2264.55001249
      3360.13932075
      3970.23122626
      2332.24854444
      3411.21751405
      3929.66787123
      3130.61668088
      5404.83889351
      6981.00518432
      2906.75430972
      3337.24673406
      9088.79889927
      3294.60599254
      5874.64754316
      7030.32522339
      4586.35753965
      3730.92151072
      2606.18053549
      3419.03794328
      11090.03146284
      4434.09206993
      2451.29547645
      1424.66708567
      2632.70848828
      7621.97543680
      7101.85580100
      5092.53838849
      7037.64231451
      3745.99875920
      6460.26411763
      12506.79789720
      7866.27582098
      1372.00367448
      -10747.15036757
      11358.61965578
      6315.68043907
      12782.96052019
      6812.40395919
      7727.49407698
      -1201.38504555
      4870.87844319
      7508.76015599
      -908.43018743
      -1209.15427301
      -10647.30793924
      11149.19650202
      2484.77210556
      20076.15476860
      586.13997373
      579.87608647
      -646.62184081
      6920.34525875
      2675.08535609
      6639.46200579
      5833.37813387
      44.06960269
      -4755.37186337
      3141.00366782
      3746.29686449
      -1475.47258156
      -1975.37283463
      570.19607722
      -1124.01679362
      1504.17626977
      7210.24382960
      5412.40271691
      8399.83795075
      2783.08461678
      6863.15430286
      2963.30433582
      2946.30253466
      -1346.73773469
      12423.87793031
      15194.80258331
      7722.75005448
      7987.12847601
      13983.60498754
      1545.21987931
      2952.74845105
      3279.51899043
      685.89663239
      1319.53415065
      -350.88549260
      3696.49060917
      4042.86041671
      4201.47040392
      7967.22110671
      6060.87764069
      9954.15487071
      7331.02621901
      9118.17167579
      10395.69900869
      12749.96535940
      3782.70165503
      3293.45883522
      2488.23861698
      2679.61002301
      3799.18237886
      2689.98405415
      9791.52840105
      4828.52032215
      7024.97648949
      6858.39409501
      453.81859373
      454.03624554
      5841.20391039
      -615.51916108
      9832.64853719
      7542.06663334
      1637.51103043
      4784.31067630
      3245.75398336
      1901.86368821
      6825.47248825
      8623.38118590
      2624.50163343
      325.33713889
      258.43514860
      4301.78436004
      11755.69567188
      3947.34215137
      7765.78498538
      -660.92178969
      -1619.58869031
      6496.68316800
      6948.62532100
      -4180.81947622
      1263.18584918
      1255.13309512
      1059.71886626
      -28338.34729544
      2235.94692207
      3297.55042734
      856.67623583
      4557.85892414
      3084.10302138
      11002.62303030
      7335.09012992
      3831.76929089
      9819.19347635
      12136.22363911
      6267.85710871
      15604.87932112
      10115.81454635
      2487.09692906
      6632.00197270
      4866.29970035
      5053.32782767
      6503.27894659
      10339.41647796
      5216.63095128
      5895.02824762
      5279.33408489
      8366.96902488
      8499.38049688
      7101.12951708
      4587.99554414
      9730.36199888
      8666.17377911
      2268.88784755
      9387.62730147
      10094.06013180
      5431.23435887
      12278.44122646
      -3271.97869572
      4000.85123821
      1856.92033291
      4742.04600950
      8255.52801538
      4236.14607634
      5745.60361684
      7538.68830420
      3407.15055517
      -559.37134013
      -1123.23115649
      4083.44844523
      10277.58844165
      361.59221364
      4686.45006215
      -1365.21898271
      1894.53341030
      4900.69369045
      1495.44166243
      5977.71391464
      2697.73511424
      2093.47409033
      3840.85178120
      -2218.17734208
      1858.59845831
      2208.30917262
      -2013.15919104
      -655.44500898
      2619.03645028
      1598.86234218
      -2951.00359124
      -2910.64261617
      3515.86852164
      5507.58814985
      2793.82493659
      3277.35899543
      2635.64244217
      26008.90612275
      9780.46425280
      4439.46712441
      16453.45129544
      6048.25044948
      9919.29666180
      2004.21331707
      2827.74087671
      8032.41207783
      6899.06722405
      3521.03279248
      4841.12452690
      8888.13535011
      7063.27213385
      7113.15099904
      6705.91467599
      5034.67736814
      7609.41309514
      5568.43337684
      7306.09933161
      5998.61342671
      18686.27329679
      10809.64954080
      6052.33377044
      9448.40937814
      7073.62582144
      5134.85317389
      5842.62293538
      10980.40558186
      1497.00609566
      6388.56627168
      8739.54326556
      2435.91833835
      8044.25605699
      5276.64204650
      958.13829195
      2276.80853475
      -282.42219675
      1677.44953299
      8348.53425628
      -1600.38397393
      7904.70470428
      7749.45735396
      -110.04291005
      -1516.30418880
      2006.28695338
      4302.25060698
      453.22249977
      4369.69137285
      2611.46705391
      324.35739567
      -6778.49551873
      6746.31958250
      6477.09205275
      -4006.34261112
      253.02255134
      -6224.53591809
      -15020.33740629
      -3897.25844891
      12600.21321520
      5109.33875188
      4262.13604044
      2612.00602453
      2951.34174704
      4649.86492266
      4340.13010797
      6425.29366162
      4188.70283548
      3572.98529559
      5378.62345264
      5254.02649749
      5727.71256483
      2868.70218178
      7689.74268835
      5530.38597700
      7469.78298565
      829.21633253
      3718.64343326
      5010.48021022
      937.17807162
      2985.21154337
      2690.72519401
      4117.05784193
      6893.89405088
      5869.72804788
      3545.93470605
      17432.56554936
      5802.69994462
      8224.13817848
      1822.99328024
      5262.56228861
      2910.06333116
      4999.18802999
      2306.42938002
      -2504.83084801
      3587.89814903
      7565.53520743
      2331.10105067
      728.53478792
      3599.04814435
      4016.52166937
      4691.00838313
      5949.08550421
      4489.41149666
      3521.98407307
      6012.04881536
      -223.10470989
      3393.19413272
      4724.50940345
      6713.43553789
      2889.65581741
      -1091.82765412
      6276.10491513
      1570.55148416
      -2064.26010563
      -996.66422752
      10228.47005713
      3814.39854153
      -2333.24451504
      -1276.34466136
      3171.85935021
      4536.84116375
      -21029.26818479
      1970.15694624
      9346.87636593
      1949.94467957
      4350.49508851
      -30962.88851667
      -2519.01799792
      1659.81005006
      5394.76487810
      5568.29183319
      10432.48873453
      6972.80842235
      6226.45786776
      5189.02848927
      7332.03018706
      7440.53683893
      8179.16376058
      12368.74285891
      9181.52438618
      3656.76087526
      7624.26658146
      9817.31549498
      2984.11130819
      2738.19379767
      5401.55291910
      4151.07087510
      3708.66719420
      5667.59469612
      3830.65641808
      3703.97718039
      9061.81339758
      7987.54072859
      10121.86374628
      7755.64959856
      2273.17104464
      2237.08434919
      3422.26166759
      4680.03034460
      4642.17034503
      9115.03217614
      3369.57793756
      4578.23438559
      1073.89580459
      9080.15112933
      80.38252245
      2019.69526945
      1463.27634565
      4371.15860252
      4530.07086759
      2816.56788609
      3191.08711937
      -7.83233310
      2668.69482811
      2592.39578049
      1034.62469298
      2687.50065085
      1706.42890225
      6365.95049474
      2314.35706952
      2643.54644226
      473.25026890
      2697.09533211
      1606.87411745
      -3219.27363319
      3595.81812905
      -3975.16757347
      14094.68957609
      7952.87504874
      -1789.45977797
      -2758.47994797
      9676.53675723
      -19317.15986296
      3439.32525334
      5644.37306349
      4312.54582190
      2750.90706060
      9925.67141890
      5063.80210553
      7066.86227754
      7617.53966575
      2574.85565306
      9511.68506535
      15496.01828075
      -729.56092877
      6265.61724105
      8713.03300840
      14438.21573711
      10840.49303577
      5829.14094618
      1009.28017925
      5101.47185988
      3824.95223116
      3551.52344293
      11599.26302418
      5792.32824437
      -481.81303937
      3538.49953431
      1991.18391171
      7531.24276428
      7675.12243473
      7108.85158630
      5781.25353366
      4145.33235783
      11417.06789011
      11866.35791763
      2014.47387490
      3059.21406067
      4033.01421064
      7968.97099834
      8496.19655930
      5284.36199852
      4935.76381406
      -2626.55580922
      6440.30696014
      1389.97768883
      1932.98593696
      3429.37403123
      3034.91471474
      527.49010843
      1672.37297620
      3101.71397368
      2493.77465335
      1784.45951058
      1691.83774812
      8153.87236228
      5927.38717660
      4104.72135340
      10130.88615437
      5370.01294807
      976.45692965
      3366.31847897
      -6334.14683985
      -198.42552849
      -9998.19353167
      1239.99495598
      1669.00541679
      3350.33025051
      3211.75720808
      5408.16451677
      5553.76002447
      7371.81077740
      6239.61456897
      3589.06551046
      5553.20358846
      15090.92635818
      8967.59199082
      9376.50047604
      7301.51596406
      2280.52701425
      11006.68060883
      16964.50475303
      9739.29745215
      6173.85543602
      8906.42413347
      3270.60121734
      3062.77882704
      3379.18981444
      5178.05095954
      -1946.03648841
      2656.75449873
      -2495.20502954
      4674.68718877
      11891.03200099
      15592.13146125
      6200.65567477
      3361.87326395
      6095.45519039
      7550.26781547
      2220.87783926
      6256.12460483
      1072.17718956
      6489.65724506
      3025.82443443
      5138.83000420
      11997.19222378
      1861.38378665
      624.23813125
      840.52461236
      -306.59963077
      1873.32365099
      1065.39168675
      -2673.22241281
      7637.84432203
      6702.51896355
      3749.62081672
      5120.65335413
      4610.65062112
      4524.59394962
      6718.88185812
      6050.57781017
      558.23340538
      7698.64682615
      5269.05203153
      4068.44638506
      -1088.00265695
      2057.85709699
      4129.40405152
      5818.66950644
      14360.16853280
      2951.10836823
      215.02536395
      -2384.00105151
      -4806.09245908
      5456.90973822
      1907.84443664
      7365.13354160
      5662.05592464
      4827.88148953
      2834.51812549
      14303.26942218
      8987.32427298
      11677.60445548
      7022.43307717
      2791.02056534
      7641.67214648
      6015.75211966
      4130.45402080
      10060.38087860
      5913.32245571
      11932.07985683
      6043.11656494
      3923.86058788
      2629.15861950
      5973.01132997
      5807.70032768
      4761.43681187
      2850.92857351
      10643.62209414
      3151.41909738
      7090.91297850
      15249.52349183
      7748.50986672
      9890.90796444
      1347.63374372
      3072.70719139
      2980.61511991
      1842.32863497
      -1934.39670411
      4030.07660430
      9564.80785885
      2050.53149067
      -977.80652378
      7509.21600667
      4474.18730972
      4155.36595854
      2550.02322261
      -569.02985620
      -425.93353304
      3183.74308027
      4676.46686074
      2733.37504555
      807.48974020
      5319.20086991
      1604.19103849
      1215.03019701
      -2948.19148275
      -2578.40596641
      3008.87234602
      3814.75229799
      7810.26728552
      8312.98701117
      4802.19082948
      1594.90726498
      4707.53527961
      -5431.00420636
      1312.70401009
      -3773.58366221
      4559.66396929
      1352.54114939
      -40161.08078057
      2436.97052515
      6925.33910823
      12890.22325241
      2964.70008741
      8734.95453025
      3715.69856181
      8911.36142481
      7530.21672919
      4276.78696716
      8494.99498034
      9383.75171570
      8735.91428344
      3803.63917844
      7930.01544656
      4582.99839449
      19967.02750099
      6872.81098689
      829.91906252
      6807.31251567
      6438.92041994
      7754.29572297
      -487.43181118
      5399.83295504
      10164.05224517
      3589.65397036
      8596.49919406
      7010.69488908
      3125.20757533
      4369.31967407
      10230.54594269
      4911.45644128
      6364.38088333
      4531.94622730
      6670.65617774