<?xml version="1.0"?>
<VTKFile type= "UnstructuredGrid"  version= "0.1"  byte_order= "BigEndian">
<UnstructuredGrid>
<Piece NumberOfPoints="5123" NumberOfCells="5123">
<PointData Scalars="Pressure" Vectors="Velocity">
<DataArray type="Float32" Name="Pressures" format="ascii">
      325.05319156
      -17534.85272876
      -26068.63614339
      -25493.28008765
      -24261.99582305
      -28560.32273856
      -29272.80775739
      -230.50888067
      44.77046667
      -23569.16128140
      -273.14604346
      -22140.43487678
      60.27580318
      1085.62865089
      -20993.64946475
      252.76203440
      531.58840636
      -27025.94562458
      901.27139294
      -473.53948723
      744.82214596
      -171.65219528
      -966.69035913
      -712.88783677
      -43.44310704
      1744.69717164
      -591.88069987
      -249.13479877
      1012.65978582
      -167.63306676
      -288.58792978
      837.54224876
      261.99174672
      -54.63587215
      -800.86945075
      3152.93158085
      8688.94770735
      -720.59269482
      23156.16058636
      2012.79157312
      145.13718479
      -1334.01220063
      -3909.01868826
      169.02744830
      4157.23651639
      18408.41806124
      5532.41888381
      10305.95599494
      1925.84116990
      -4058.03488517
      3656.20562794
      3110.66445517
      757.89903528
      8894.27744910
      197.49995354
      -65.24162574
      568.46181850
      -662.94624555
      -5599.85606597
      605.49695602
      7780.97893138
      550.92749360
      -3002.35244347
      2815.80823885
      -4302.11545558
      -1214.42142946
      4888.81306486
      5389.50317142
      976.25542623
      2690.53093242
      2529.23178863
      23.97190881
      2635.63742950
      1090.16194422
      58.34353074
      1734.19240794
      287.04789131
      2635.24701912
      591.34660646
      170.74208007
      -88.57788865
      -133.31365776
      -32.33405840
      -124.87005616
      644.22224635
      -224.73346403
      1616.04532466
      1521.78621780
      -418.20839192
      1139.00462435
      2721.43402311
      536.07450935
      400.97021884
      232.95836967
      1441.08486670
      -705.90628977
      -544.78648952
      -964.16649030
      659.30657945
      6.54762521
      1793.22752595
      2285.34708529
      3195.36387938
      3265.14123663
      444.78817131
      -2504.59724036
      5109.31261123
      -1142.66166574
      8902.99488444
      4545.94106690
      3278.79050461
      3577.35462065
      1636.03597995
      -531.19944649
      -3000.53945606
      1784.75017574
      -17277.15452016
      -6216.07580304
      -2951.28580174
      187.17978067
      -3581.92409766
      -2237.66830844
      2079.40937437
      6492.13240158
      1090.04904462
      -1763.26054713
      -531.43313672
      -815.14128579
      364.07303466
      2587.41886680
      2407.43915208
      5531.32182577
      -24148.52814249
      367.52721373
      216.49331476
      531.74551464
      911.68479631
      2836.87795366
      1843.09647571
      -453.01752081
      -1544.82286075
      -255.95737968
      1309.25306248
      1190.07600457
      470.85040828
      -786.22349151
      456.80312295
      72.50739183
      -557.85858746
      -1727.43340442
      802.76844348
      -480.78616959
      -237.23114565
      482.74380509
      869.87490732
      201.13242754
      2979.99766126
      1053.96229369
      1056.35428951
      2428.10134805
      -679.01254609
      95.58081769
      124.43301586
      508.59789087
      -6920.16353222
      1177.12308330
      953.24015684
      3458.17690165
      2135.46870859
      1960.69625099
      3383.96727871
      -2013.05799556
      11336.39708463
      642.17138624
      4897.24517449
      949.56878100
      1768.57996672
      5377.27486500
      4432.60749899
      1797.58661261
      6134.14151552
      -1399.03789614
      -6853.41616738
      2166.29512076
      -3321.33565985
      -6169.89613795
      5040.26145544
      6142.18043236
      557.12536212
      1233.30575617
      3829.38673344
      1900.41780322
      -1566.77272130
      -1263.71028983
      1554.90686596
      1328.62831955
      -1757.24531277
      916.76492240
      -18716.99888393
      -235.48904504
      828.65056305
      1450.11415162
      5129.91688718
      410.85914240
      5453.21045057
      1491.19538954
      3730.55065476
      2719.52759605
      4376.59121094
      1091.94730350
      1844.91290041
      4659.69628101
      399.68361343
      2132.39269034
      827.41283965
      173.72115549
      327.74188429
      -241.50635247
      2343.91456917
      4309.49592982
      -275.59421032
      887.00986380
      5994.15913134
      4538.71597144
      514.15039036
      191.04002359
      -1085.25785082
      2163.04824274
      6087.59548134
      -2219.78043351
      9.03891563
      1504.85193735
      8654.09810405
      8355.07103535
      4720.13084523
      982.58627204
      9.92660786
      3146.35416809
      421.39915335
      7263.15589561
      -317.73509590
      2364.77413884
      8491.60310115
      3632.26344405
      3941.87925531
      -216.27205338
      979.80691883
      3683.81262625
      4612.29603822
      5781.64115029
      27.71906689
      -7265.80025123
      2369.92003565
      4191.59874001
      -779.68958598
      2247.04231165
      6606.58448253
      -1945.87099017
      2240.27248800
      -915.46893078
      1267.75487970
      3702.39224368
      592.80758866
      2922.07171391
      -27399.67254656
      1643.15055409
      4496.33451009
      3358.63163265
      2408.25831605
      3353.16137413
      1547.28499684
      -575.08223528
      2179.62672744
      1255.09957603
      945.40010386
      1740.45952192
      2089.23023914
      6406.19250524
      1486.80429568
      1058.96897385
      -3141.26428642
      3641.54349808
      3375.98254141
      1782.16578441
      1882.99727709
      8590.95888329
      2177.79912059
      4235.24905323
      1408.81158507
      1391.10002860
      2257.14015532
      -750.02422020
      -1540.81210518
      649.50194512
      858.80790025
      452.46856880
      2796.23535747
      -405.89577870
      948.97525482
      2594.13318017
      568.25009266
      -3770.29474990
      3589.43493969
      1324.26363989
      4332.68383086
      -3380.56960573
      1673.81337907
      1169.18416574
      3352.39987980
      854.33904219
      -591.51598518
      -6254.08341419
      1514.94075744
      6071.30373018
      9477.13567021
      -2831.87355189
      1746.26844095
      256.52817599
      3165.45812454
      549.41131012
      3349.46278368
      -2530.79526255
      1548.95876859
      2662.48715433
      1476.75067455
      1600.90921200
      523.97406536
      5182.64694387
      -962.87702484
      6709.25519517
      -20980.90566408
      5529.23263188
      3124.91317229
      808.15963509
      988.43503072
      1823.11246279
      6945.63671060
      3662.61185480
      1572.30908688
      4407.60819954
      8029.68840446
      3231.22413521
      4368.00077573
      11155.18547069
      8258.87719136
      2197.07157563
      6892.63512646
      5495.01916427
      2947.03602993
      2807.97710210
      7260.34894823
      714.18281693
      1115.67896048
      1040.23512519
      8768.76844238
      11677.85483515
      2351.57748818
      589.60727465
      708.54753207
      2254.16032646
      1016.07849543
      1828.38428804
      -648.30156599
      1715.85634933
      -1255.22347402
      -866.04979171
      1898.16494211
      852.28107822
      3206.40724711
      2208.12445096
      2799.05625627
      4579.95863142
      9924.02150123
      3806.30172100
      -2018.47567328
      2059.27080984
      2901.24876096
      4020.89389185
      6283.21945298
      822.98315451
      1423.99886136
      -5780.09501691
      2840.32455334
      12198.08767456
      2166.65688895
      7354.14575960
      3046.23739591
      4753.15156315
      1390.21793279
      3354.75723601
      308.13554322
      3570.93002703
      -1617.19900130
      -2542.26209456
      6316.31516994
      4717.23748994
      2432.11499228
      6724.21923943
      1141.10399980
      6671.74324523
      4601.87952611
      4230.29078009
      3242.89869436
      -666.53416159
      6610.79179573
      8822.23693550
      3850.36625252
      8991.18672344
      2472.17612935
      629.50892796
      5756.12110515
      9879.92181866
      3116.86474840
      1637.09615004
      4724.21096473
      6376.88701605
      -2726.40073843
      3100.24445053
      4957.55976509
      5857.17416366
      6422.64518030
      5001.62849652
      1414.93801096
      4662.33333282
      1811.43955183
      43.74243792
      2971.27074562
      -553.63157399
      2940.67757430
      1310.00919035
      3768.57107904
      7.75527372
      9111.69221264
      -399.71544004
      6374.02262430
      2651.02002908
      3306.31354099
      2971.24592395
      -414.41132794
      2635.92069553
      529.12080057
      -413.58247519
      340.19742279
      2224.15946867
      1332.88627060
      2572.56252108
      -596.28235736
      1069.96971166
      1716.03339346
      4501.89996997
      4160.95288502
      2335.59141601
      7439.48872819
      2572.98272284
      7172.27011806
      4840.60913946
      -1867.65353107
      1796.94315109
      1034.07775152
      316.20960928
      915.72282941
      4032.21588281
      4911.13061932
      5137.00530181
      3554.21693358
      461.11733855
      8225.94263494
      3395.54249595
      3088.01519075
      4738.86304875
      11082.91798290
      4966.04822594
      4894.11700566
      7107.25980269
      3576.30709812
      7007.53150850
      4662.23685332
      8609.79060960
      3527.45860052
      8391.97963840
      2229.07395956
      3990.00999983
      15471.76453568
      2133.91534876
      -1329.58560317
      4679.35722777
      7328.61358835
      10027.97019810
      2097.26759361
      6959.32846035
      4273.64645228
      11775.29355299
      6319.81575250
      2412.98578819
      3722.89906097
      2042.06798796
      2944.81365307
      2258.11776327
      1193.08667517
      4085.83382087
      6295.44456619
      2085.33718991
      6970.55029092
      1970.06612405
      -1557.84377078
      -574.94251579
      1975.16317015
      897.59233757
      2680.01980909
      2353.70427006
      -1673.86938574
      5144.53651893
      -30.10144430
      2701.18016066
      13.14146267
      5780.80699240
      5396.45565931
      2646.00702747
      913.48713473
      5341.84164213
      8367.47125777
      2587.14572708
      1406.33847523
      1234.83010953
      -1545.52179141
      -1207.87831927
      94.95092698
      539.50634572
      -21336.21804100
      4694.33660917
      11374.91837023
      -13821.38983138
      13097.15546361
      3741.37994086
      13203.19358958
      6205.70951550
      11012.61292654
      -2842.40166151
      7012.49259837
      4953.80209444
      7409.28599996
      2700.99888139
      16928.89157703
      1850.27010298
      -4886.40064174
      7828.32754416
      6736.89634684
      10019.35083335
      7728.34071552
      3591.79826931
      7906.43802531
      6541.48919802
      10363.56079708
      7375.86424757
      8879.57019481
      2995.33865960
      1337.85635637
      5140.72967373
      9599.25595019
      2703.60909590
      770.95238112
      12605.16236765
      4544.25571428
      3695.72795009
      6221.90848535
      -1650.49695743
      2391.14593854
      16369.65308015
      3031.10799042
      4264.06473940
      2005.65182652
      90.07471373
      4788.73499623
      5603.12560065
      22.12069495
      762.75176879
      2424.87926187
      1526.66563550
      4255.94117830
      1877.46165690
      2928.99115483
      12317.12446618
      5356.42536435
      5259.33656372
      5027.29722550
      5337.85976182
      1819.34469805
      7665.23824743
      -1403.13794627
      -335.59993886
      1881.82015344
      3100.25489445
      110.74396039
      3325.19896148
      639.30794465
      -16161.55176151
      3532.37711233
      781.23589494
      1915.07025730
      7535.53471235
      2228.69712983
      4922.52755448
      20966.34277365
      4995.90555427
      4897.98725674
      16973.25171111
      2437.55748660
      7170.46953130
      4803.24900186
      5959.76507242
      943.11626769
      6751.52432570
      7861.66506691
      4650.55066602
      3125.82129528
      6668.99832664
      2684.13688716
      1331.73183251
      1619.56298894
      1852.26045452
      1793.42665989
      1702.16326543
      575.79898702
      2718.32793796
      2146.82365588
      7708.97316074
      3818.59482850
      7269.29997901
      5268.86065459
      -740.66469757
      3180.28516068
      1847.39782956
      6422.01060116
      2460.94578285
      412.52093283
      3384.42904241
      6335.79543171
      956.21539674
      2901.05916887
      1402.19374277
      837.79084350
      -1973.96562572
      2773.65002477
      1155.66206548
      443.66356336
      4846.56449731
      7826.15022113
      3895.00462779
      -886.83302231
      6051.58250522
      4275.45557694
      2740.47564627
      -557.48134919
      -747.12485014
      1841.56750345
      1993.60943170
      -3844.92525521
      -3955.80648795
      3672.76352925
      2843.74743036
      -18378.22992136
      -5122.03323266
      6064.45072582
      4580.74231148
      7446.09288170
      4257.21454137
      12224.43534851
      5341.62558216
      10781.69526739
      4064.86787437
      4785.98626424
      6742.32402424
      2833.23792895
      2692.13328078
      5416.82722028
      2830.10528641
      2814.71713847
      2075.51800615
      1418.91195253
      305.50164924
      1745.64755146
      1881.33605288
      3365.30950080
      3882.93139294
      1120.29277117
      1833.08946611
      -900.82546409
      1552.89249169
      -279.07724830
      1051.02738757
      1885.35858401
      4496.64794733
      5502.65102954
      5271.67666402
      -1504.61269468
      3940.99344513
      6268.93775170
      -150.63038615
      -2455.99071737
      1192.96418379
      6109.98786539
      1662.15694091
      4379.08408228
      4226.10564180
      3186.95199400
      -1889.03000382
      4905.24033634
      2141.68126979
      -34.35748973
      2442.02232502
      1282.95835383
      -1093.29322843
      3775.31550174
      6605.89125969
      6228.84240543
      -3132.98513928
      2085.77930263
      -3628.35248222
      5992.25514552
      -524.76478625
      -85.85495653
      1746.31003981
      -197.68458527
      3443.94442274
      -789.57020875
      3295.86034518
      -15857.23209146
      2266.98680814
      2289.41255793
      3690.49817779
      3161.15529033
      13456.57841322
      3300.55683572
      17646.89014998
      10512.16800143
      14624.46315247
      6345.17766384
      10918.97032608
      5738.74142002
      16348.01145699
      6994.03229201
      6658.20967018
      1856.43478388
      4666.06652249
      2042.03228225
      1412.17184814
      1708.29626132
      4442.59661889
      4100.81255296
      2644.68585608
      2837.61821784
      -1865.95175451
      -972.10299774
      154.46308327
      135.99266108
      5679.60445993
      -215.10939689
      62.05551891
      4909.97213391
      5498.49489731
      5783.63841115
      1709.30127698
      1940.14846500
      5747.69661960
      1408.44824663
      1567.40456049
      1791.70231762
      1801.50593334
      3322.00387787
      2085.54986380
      4638.24555547
      5114.46961001
      -400.59523692
      -756.25047704
      5962.10381967
      3829.84713044
      -1020.67566283
      1381.29432365
      1473.01720658
      614.08410530
      3830.41973091
      2590.58047683
      171.68701889
      6305.59358330
      -2096.62632298
      1818.13553359
      3894.82700963
      10.41513767
      -4148.00263780
      161.77600050
      144.39025197
      1395.62413359
      -3081.10208758
      8626.12054030
      10259.09535052
      1554.37364860
      831.28260899
      4131.66421309
      5115.60337889
      4588.36556372
      7480.00891121
      7595.44539769
      3684.23308107
      3298.31827133
      1808.80315902
      4219.75878570
      1496.08800978
      1663.76695909
      5365.66570856
      319.10916402
      717.49617429
      2942.14082445
      694.82302687
      2953.28493786
      1152.10122892
      1796.44445018
      2727.55150327
      2195.04874877
      1636.72164208
      1792.06842674
      4259.22812348
      4720.30320774
      1873.27270951
      1796.55363004
      4244.09423732
      1874.31178296
      1965.02251489
      725.19195855
      1223.68870888
      417.13141917
      2050.75343205
      1058.61756821
      -1491.88335685
      -236.74188087
      2567.74481325
      2392.02967991
      -1396.14698489
      3442.12611134
      -1489.10496874
      653.83345800
      2136.27584371
      1526.84217441
      2217.59441593
      1233.22688675
      1927.25395780
      1421.35403375
      3682.99623842
      1087.99036602
      1507.08293885
      -1231.67717814
      1667.43878626
      -89.73230703
      1051.83350987
      -1010.48922158
      -1385.84510555
      2659.04832565
      6954.62156090
      -2550.58589955
      -7886.36499036
      2336.26275936
      11048.18687692
      6152.91422750
      21760.45589066
      5696.31595098
      3180.66647710
      13595.72186594
      2039.05266726
      3397.67943263
      2602.65991699
      2111.17269834
      12.83318038
      5314.87278234
      2544.96107313
      -835.80815080
      1144.29600689
      958.65723082
      -1019.90571566
      1126.44157009
      -133.15127941
      1226.37987956
      400.26703771
      1952.71184219
      1492.13973717
      6.37497370
      1055.75708059
      1282.46882680
      1030.11470924
      6749.44578366
      1789.71569425
      2518.39209049
      475.17722951
      2125.84616656
      513.65293499
      4117.46818687
      6242.88055496
      1389.58717035
      2729.54164549
      3628.45547524
      6177.97755793
      4423.64929386
      3896.75948637
      4336.35447669
      -1695.20870067
      2876.61795452
      1792.96030394
      1421.36027021
      641.85288227
      -1323.82324370
      1810.70548834
      924.70523564
      1807.68718910
      763.01620043
      1374.76379303
      -1892.64536323
      2776.02356944
      3881.59867918
      292.87307496
      2627.80301103
      -1842.28347541
      -1341.74536213
      4667.35564559
      7309.59312795
      4810.96809350
      514.73259026
      7255.84719132
      17526.29817915
      17600.81536257
      6693.15939562
      8600.23826185
      2875.72504129
      4270.92046265
      4239.35334439
      1279.61175566
      1893.43167381
      3369.42041487
      6136.45818813
      7624.26938883
      2325.58223432
      -2725.43706128
      527.74242964
      2246.70948235
      1041.09318406
      1368.52510129
      -121.84106492
      708.66945208
      1981.42501003
      3173.20459920
      6121.15475192
      676.55533099
      5477.50979092
      408.81538256
      2145.76977602
      6919.52045045
      2341.62198238
      1261.35781240
      2648.71480283
      -17.23598060
      5736.81913413
      79.42275613
      476.85996266
      1639.01687328
      1196.13751583
      2475.38096869
      2734.29059510
      509.88550173
      -1651.65951491
      1281.31417419
      294.30068470
      -4815.54830375
      -132.69079625
      1308.87335082
      4230.57396913
      4979.75612264
      3011.62653255
      -2352.23893340
      611.18635934
      649.72883204
      2288.05550639
      -221.00790678
      1642.77599988
      2745.89632602
      5704.97963126
      -812.82250262
      1457.49257675
      450.87791076
      4649.16464947
      1920.27803245
      5703.05599861
      1390.13913587
      -4950.68974660
      -28338.34729544
      23492.72656193
      3174.93221438
      4037.99428419
      8221.96175908
      2296.60015250
      2748.57200408
      3854.66318067
      5421.80825188
      2173.23304189
      6049.02018642
      6906.41109685
      2637.87378642
      4113.34269417
      3870.42863882
      1041.98457174
      1078.17007057
      4123.79652426
      949.61526263
      721.00314258
      2250.63212579
      2079.64257247
      155.00191519
      -727.81480896
      1777.05484509
      7210.95815116
      1617.87252198
      -1914.69089666
      4901.79239059
      2159.21979849
      -659.44085689
      2683.65057992
      3951.20654995
      -396.96553361
      1131.02691199
      455.28118673
      3351.63730968
      3115.12281058
      2183.19024379
      1928.50110429
      899.61312723
      1373.29974826
      4369.48684442
      3385.35665144
      -626.95042222
      4600.65896869
      3066.66173818
      -244.90586282
      -766.07894966
      -108.60921189
      -522.12751322
      -565.95823536
      -483.27516520
      595.30523175
      -2721.81757862
      4701.85982857
      -697.90488294
      3078.55045181
      2899.59271787
      1856.35349078
      -3494.50870279
      -303.28147323
      -1385.18601723
      8809.44977507
      4046.39335999
      -7270.38627740
      2796.89734730
      6168.92886640
      6482.95328557
      5692.25511968
      3868.88797575
      4806.69393307
      4189.91225565
      5714.69965743
      2121.36862319
      -1904.62881264
      771.47775359
      -1058.54257586
      4089.98444449
      -3249.55985306
      -6381.41066225
      -146.25711860
      2781.14388480
      -6454.35380447
      336.21482493
      4210.73258371
      3576.12261219
      1696.67564838
      948.99992833
      -452.31875827
      2747.33109035
      1579.95412452
      3097.04560495
      3053.57491339
      2671.51909503
      1855.17260760
      1132.71162008
      2063.40512973
      1214.27109279
      1231.99407781
      635.03774265
      838.11630242
      1969.44669866
      2721.45960818
      1055.70590098
      -457.04990876
      -219.24131768
      -1038.21963615
      1023.12106611
      513.18898015
      1688.97844024
      3357.16264663
      478.30239951
      4920.76157666
      2268.90181317
      4440.62408593
      455.34087004
      2978.40194432
      1772.10306688
      -510.00065270
      -2028.69884902
      635.23944950
      2791.21261353
      369.38638781
      -3521.58805357
      2406.75498653
      103.72378926
      534.49634932
      9621.46168118
      -677.18227782
      1800.72772557
      2307.74000814
      3470.32209102
      4489.70904107
      4643.84684536
      9297.34462430
      6186.50018541
      2358.02006760
      1963.35377864
      -2161.56248148
      2451.07491902
      1973.02559685
      -239.64141822
      -2189.08525819
      3231.24281441
      6067.82164613
      1035.95624374
      649.41611055
      1436.35943216
      1330.51731097
      305.29590677
      2081.79359891
      692.60981346
      2329.54665734
      512.90898243
      2164.31047392
      4547.30821528
      2081.44856794
      2028.28931786
      3591.51238876
      2387.36796733
      884.15132722
      -254.93251686
      -446.41943037
      1809.91245855
      549.35072121
      1689.84414803
      1431.54933355
      -2694.24012848
      -2335.47099794
      280.15042664
      842.19642956
      1022.32962752
      2206.88150549
      3285.37411376
      310.26973415
      -2351.62155411
      708.64195940
      -1141.12569733
      -1592.57487728
      -1625.80954595
      2631.85022139
      -1922.12136719
      -1196.21316541
      446.46136409
      -892.26481199
      -2492.01839669
      647.40570989
      -578.94503081
      1383.97157666
      344.15049113
      778.10319067
      12252.28937078
      2193.39224958
      4847.87238697
      -6555.35708364
      2499.15603623
      -1132.07834675
      -30962.88851667
      -5678.75686574
      6215.61406415
      3706.05166445
      2819.87225420
      -2628.30913525
      2064.56814489
      57.78177666
      75.59552396
      9240.39251726
      1207.59021273
      4720.21170282
      4130.22627877
      2561.03847296
      1283.79431536
      5895.00859697
      2760.23490469
      -2699.68085170
      5.57012261
      5121.63329660
      862.43337451
      -1641.16848841
      4856.86868364
      894.55777333
      1675.28207186
      6707.03891530
      7384.40266523
      3777.58287485
      194.06625015
      -2245.98166496
      -2312.55421209
      -2812.72293421
      2878.69577982
      -3384.61464679
      2394.18744952
      2431.60819355
      2941.93195135
      1818.96382885
      2794.39660338
      1601.51557397
      2091.27974316
      -155.34360801
      488.33214394
      2296.14961243
      155.01806796
      -1181.37763243
      3387.47409711
      1298.03948817
      -866.14734561
      2365.50333026
      1588.31004669
      978.35612923
      1865.43448882
      -1285.91523993
      -601.39096873
      -756.65431699
      3961.85826917
      3904.08422677
      2122.44823117
      -2697.05157187
      5597.02222964
      5241.54067179
      272.74308075
      1512.46037689
      1534.46470703
      -1138.46179121
      -19317.15986296
      3439.32525334
      1353.41323210
      6223.87586092
      3965.68426085
      3823.16265148
      -2773.61481581
      -265.32112572
      1843.18955296
      3581.63878721
      4924.43325225
      1989.18134384
      3083.26196858
      -59.84830354
      1188.13919052
      2184.75974444
      3541.13056647
      1897.36499076
      946.17788165
      1225.27241065
      1379.11197495
      1518.94960719
      -48.45337089
      2020.80904902
      517.99772676
      3129.97393120
      -3526.69744988
      3860.92554181
      -5706.96555682
      -3791.61752100
      1577.04938458
      -1815.36009658
      -2493.92310315
      8637.99222978
      4643.29328627
      593.04083888
      -924.04805432
      731.49898317
      3229.36071610
      2311.40505902
      2425.90618926
      3655.46388892
      444.57244731
      225.89314497
      -531.23386913
      -285.97460931
      1048.51245202
      -168.86641071
      1766.56575962
      775.07040055
      -1795.35935928
      1202.53918023
      -657.96318031
      -606.95014054
      1057.92313735
      219.11861729
      2154.42886844
      -3712.43951574
      4432.70791562
      3995.43355374
      2572.73902888
      6004.96990139
      17935.32622778
      2430.75470413
      1062.71622931
      795.92091166
      3211.75720808
      -2927.99510993
      9379.40585495
      6184.27253495
      2981.73140533
      447.56177647
      1916.30175302
      2715.13757840
      1908.86845890
      1719.62521716
      269.84312348
      6156.10310317
      550.24268376
      8799.36204462
      3482.74593614
      1247.50094828
      1025.67312110
      1160.19660491
      1439.93363424
      227.82024379
      991.96249402
      131.24997319
      629.50396637
      595.26053605
      1438.55775849
      1410.45249668
      4224.69456976
      1131.71043515
      1842.86171357
      2293.44895162
      4520.21822296
      297.00762698
      142.89837518
      3303.66034230
      -851.36958726
      -939.64099958
      -3906.06461710
      4551.83421198
      2570.33481598
      -388.71123148
      2041.04297404
      478.72498195
      112.03513285
      984.55433811
      1752.97014111
      1192.53330741
      421.77040487
      107.84245524
      1553.10950562
      2498.66739935
      -89.19114118
      1174.60204939
      1096.30990859
      244.75062627
      1200.72943841
      -2287.94109575
      586.42834342
      -3070.60146832
      228.58562731
      -452.65346038
      2798.44413782
      2333.03356673
      5077.44233513
      14791.26016869
      6389.46439897
      3877.63517477
      10542.71171577
      1351.07896724
      1069.82484553
      3198.35120645
      4730.24954122
      91.95190168
      1836.77185984
      3952.18082662
      5477.01346117
      3705.30751254
      1542.73469011
      205.02317224
      -509.92639973
      2652.65489435
      170.00975522
      -2664.29702949
      2165.76298134
      -2269.53286509
      2605.72398542
      997.07118240
      -1839.62128580
      2777.30279634
      2183.88282586
      706.91250158
      4654.26655584
      -650.57384297
      2269.23111796
      1709.80815080
      370.83998797
      3336.09366099
      1436.12100496
      527.66615130
      1448.82211166
      1155.03380597
      1029.83595863
      -2840.28909983
      -846.01492553
      618.92641376
      -1133.75160138
      -794.62520277
      3110.90452570
      93.83376483
      -1678.36566568
      946.91592326
      -514.53145551
      231.21767273
      850.14578186
      -599.84402272
      281.70485028
      839.58147513
      903.03918478
      -693.57620097
      -1103.60870330
      1389.97881354
      1799.87510652
      -353.49342861
      57.27116508
      1100.91253074
      -263.55043901
      -2577.76702591
      3378.53938895
      2648.52587551
      5297.09942730
      3967.60296220
      1569.38331464
      -2308.31842165
      -40161.08078057
      5988.96300028
      3114.29359244
      4627.87171739
      2675.88051558
      4716.17133555
      1875.94966615
      4152.58607390
      744.37637831
      1065.05758330
      869.47380171
      -542.23622114
      2867.14832675
      8927.61928814
      1867.33324253
      322.38208359
      1462.80716585
      2297.10853864
      1080.76047508
      1495.43987617
      654.04628064
      451.68017775
      3454.84918132
      934.52760456
      118.79998484
      1331.58211891
      3123.10063992
      326.47328891
      -582.23890118
      91.50364209
      1655.63121802
      594.49539236
      766.69006910
      2024.04663222
      1045.65320382
      1457.28738963