<?xml version="1.0"?>
<VTKFile type= "UnstructuredGrid"  version= "0.1"  byte_order= "BigEndian">
<UnstructuredGrid>
<Piece NumberOfPoints="5123" NumberOfCells="5123">
<PointData Scalars="Pressure" Vectors="Velocity">
<DataArray type="Float32" Name="Pressures" format="ascii">
      -8684.80802620
      2716.20964573
      -17818.31992341
      -25493.28008765
      -24633.30042013
      45950.38766555
      -37199.19690940
      47541.82782411
      26996.50635519
      -23569.16128140
      -12811.09399027
      -22140.43487678
      -17177.58774108
      28815.59172835
      -20993.64946475
      -23575.49184089
      37430.33366293
      -27025.94562458
      154.67954119
      51190.80474351
      -26909.10818426
      47591.78025739
      38015.75108503
      25123.46309315
      43604.39728899
      36046.79209031
      12798.10266243
      -20648.65496947
      17929.85863864
      42351.88944402
      17532.14949274
      20770.99634667
      19912.55814357
      -871.76410335
      14789.48532266
      33970.87423038
      -972.40547330
      12750.66470232
      21889.26033057
      15070.74077768
      3817.87025028
      13857.45256291
      14448.14315101
      7631.28875081
      960.62723942
      4772.46509737
      5686.88811916
      262.86347632
      4680.81826248
      1304.28122891
      4346.65789723
      8234.34393489
      4299.12677622
      -2770.38142386
      3112.69269429
      3256.61616185
      3095.01647135
      1096.32932076
      -312.69928393
      -1856.71094268
      -714.81619289
      180.80125570
      317.99606323
      1280.98242744
      458.96246319
      1607.88434232
      15573.69897051
      13610.00797819
      12700.81253511
      18247.24516222
      15269.35034224
      8726.94105385
      11563.10099691
      25533.96321717
      26436.18467891
      19186.05467866
      28765.03997554
      21643.08170835
      2829.56523591
      -1555.99197902
      19545.68547671
      16646.56861700
      12107.96929632
      19667.66489813
      14001.50978013
      16860.63576369
      12362.42559801
      4652.27346967
      12552.23105743
      12025.77446955
      5600.07144816
      11969.46799303
      17497.33363951
      22397.45647664
      6048.81775476
      16119.39457641
      10763.09895830
      11078.03877573
      7296.13140599
      8285.50245190
      10175.46348746
      7829.78753780
      7949.83602984
      12795.64856655
      10257.91914503
      4975.78608200
      1311.50155617
      8068.89700439
      7947.22749607
      4985.24869282
      10161.67147264
      9679.96224846
      4102.80369880
      6535.23629803
      8656.44695249
      2914.43878594
      4348.92769071
      7730.76374692
      6068.63532249
      -960.50672897
      -2408.46877895
      -60.58126502
      2657.86584707
      4749.50546330
      1559.24696504
      621.93096880
      1317.30836371
      2401.22396040
      1469.50406820
      -2378.22511332
      -2076.36292372
      1440.81717396
      13028.05893121
      11547.96413700
      13554.04180877
      44802.28615626
      13113.23154297
      34846.81857881
      29712.61562072
      21553.02006644
      12766.15965301
      16536.01667783
      31193.93826848
      5535.07989055
      31019.03374275
      26979.89748323
      21441.89670157
      10111.13146589
      15673.85945606
      19604.77956797
      9063.48192836
      22467.10417756
      13061.96651898
      11707.89737221
      21659.16439747
      21894.35586738
      8725.66173430
      13449.21801326
      15074.51592175
      19798.63791121
      9419.18122402
      8513.96691781
      13465.36366992
      18195.54602039
      8627.49227427
      12505.86862227
      13572.00666535
      21866.75649665
      7756.17657998
      7079.10473340
      25266.81399576
      13635.88884055
      1514.52231074
      11021.86304646
      16975.15165711
      2912.19068776
      1432.09412668
      7997.19527026
      7041.81623341
      9976.18231194
      9636.31533954
      10251.44607498
      4805.86302063
      9843.29155311
      8918.97116782
      2074.46311060
      1895.09697278
      2722.75985271
      -1208.05065469
      3660.62835160
      4718.78229944
      -2561.57833602
      -1438.34242251
      1752.15326180
      1259.13279771
      102.74057643
      -3356.97883333
      -2127.38989169
      -18716.99888393
      18719.39849660
      52136.94638800
      28534.60646434
      11788.79113652
      12234.62514159
      58049.86259473
      15679.26370492
      23825.92049434
      18588.09593173
      26475.65894903
      14468.33877886
      12562.21092011
      2646.95852876
      22931.96464350
      27845.73596365
      12998.68582561
      5722.21560146
      5407.28833069
      19941.98230840
      22149.83600952
      7669.80078682
      12367.71373752
      23585.49986397
      18470.70423200
      10561.87827925
      12072.06989429
      13208.97305812
      25869.81625296
      18856.22380749
      8134.32226121
      12727.18310774
      19514.53043660
      10118.31100858
      4591.87211002
      9925.73861346
      19750.09102917
      13796.96341041
      10071.16110686
      7895.96000382
      14433.35602597
      7469.85677623
      5293.78590938
      10431.59597454
      1515.11947151
      12877.30966914
      11847.20113933
      8410.27456906
      6409.57952891
      4985.18503378
      6434.29112952
      5310.08157858
      5474.50396433
      -22.31092582
      1311.26843181
      5749.51888007
      9238.77237172
      -1321.97571143
      3820.13207862
      4535.61330293
      -370.32578510
      981.18944427
      596.17115143
      625.22023748
      956.88932353
      -2602.46943558
      -27399.67254656
      -5820.28350941
      7280.42242188
      63707.24927062
      15805.28782651
      26581.32729169
      20089.77888996
      15304.53817057
      29122.88173929
      17070.45280070
      27340.15702639
      23084.93287207
      4682.48510354
      14294.02838405
      16401.19302265
      25699.06341396
      12798.32218499
      22927.05493380
      4982.27143587
      13379.74420013
      16730.42042773
      22118.53136742
      22960.40879609
      19364.82473370
      10262.65561664
      22534.30350871
      15235.77285349
      10404.05225752
      18727.34099488
      20034.31784382
      22571.48409002
      12925.72601221
      13611.27209438
      12156.85696801
      22203.23073992
      15358.62207635
      18274.44251527
      18171.71543261
      7092.91565653
      10951.98666994
      18700.04499724
      14316.23715664
      5359.86136928
      11508.35241390
      9159.03463433
      15496.18149951
      4648.29083490
      9463.94936819
      12407.21242522
      6743.37533891
      7011.94872517
      9254.27230982
      5809.48780632
      1109.73789095
      6689.74617311
      4301.84825042
      6897.51519549
      3497.39303784
      5019.51798104
      377.23379175
      2741.07588287
      1429.35202406
      2034.74418014
      3122.35271620
      -1222.29990623
      3081.42653645
      -21412.56130902
      16062.04993248
      25590.14745701
      22896.48927380
      12824.32452012
      14960.95517026
      21812.14867842
      35401.72400014
      12016.78047314
      -2208.35018642
      32180.23174001
      21662.47973941
      12293.06508991
      8220.93085704
      15297.17710931
      17061.15167598
      16543.75423772
      26533.08723309
      15396.45368504
      9074.67452060
      16248.11240386
      20499.12590740
      44972.11986447
      23534.98886779
      5054.12009206
      16529.48573507
      20469.11542439
      13542.21543356
      10457.93174973
      28319.05053821
      22107.53716313
      18884.87200253
      5207.06251437
      9964.74670584
      26445.41469776
      12409.44389025
      6017.96350700
      13502.64412205
      26976.02080639
      7611.65104853
      7759.69741108
      13411.31738712
      16438.47368084
      13280.80886906
      12265.95834315
      12685.86662585
      9154.08899764
      6433.42458697
      11647.90542122
      13725.85849575
      7381.29342328
      8900.57309626
      10609.52082538
      6799.10075356
      4486.46285138
      7784.78374171
      1163.70850998
      -94.29644255
      5047.79114332
      4133.08595709
      4939.03805542
      1768.37767320
      258.51304041
      3847.02459579
      -2097.80857257
      4594.64809955
      -27996.49426899
      17470.74553932
      13441.69358866
      27896.35994729
      11866.16322202
      13406.78156324
      22637.97853669
      13288.70851043
      3981.48414673
      12884.16054983
      24494.65742117
      26790.46651677
      13932.38354698
      19519.97467100
      20058.69487463
      10674.60256354
      22042.81533596
      28063.75808113
      19059.49020487
      12806.37860345
      9379.64190084
      20723.40885800
      24436.79249882
      23672.12086547
      16774.17595146
      14741.94194543
      22548.09287547
      26517.29645690
      12492.54254543
      15879.77936921
      22300.84832299
      19506.39701306
      14063.34475633
      16512.63417177
      17480.53462006
      18389.25176446
      13039.77444014
      13693.86386116
      15064.32015673
      14956.47576566
      9988.15861397
      15415.28083759
      16239.48157702
      11994.74356427
      11260.66551679
      15598.83471118
      13574.38571455
      6505.36807322
      8564.83155705
      10449.69210221
      8414.69514492
      1450.52703084
      6515.85107353
      7549.62614944
      2420.40375331
      3442.53791190
      5605.31689776
      3327.73859003
      3047.30258797
      -519.01792646
      1203.05738753
      3011.74287010
      -450.57651651
      535.50522488
      1660.41181912
      2094.05974300
      -10494.49962914
      21309.50174705
      13443.41685962
      14751.72483185
      24243.09603574
      16775.96264963
      24990.48143087
      23848.40929093
      10598.82140787
      14506.85687286
      5649.57379303
      17128.98350098
      22627.66160040
      18222.52141797
      24145.46408893
      13883.30551890
      16316.67323079
      27649.30297944
      22966.66043008
      13214.51831058
      16250.66134465
      9788.79554991
      21218.16946213
      25721.94540028
      18863.81796437
      16819.68719166
      20767.87532024
      19659.80603411
      20403.62411393
      13615.29905981
      14937.35198582
      22052.37191723
      18153.60134035
      14417.86469816
      12834.71106501
      17518.06031455
      17281.29052473
      9126.20724397
      12820.71435944
      20368.82521468
      15518.26761891
      8248.21189350
      14711.16719950
      18134.60219753
      9507.34523073
      10034.00684372
      13774.78218716
      4602.79931414
      7792.10035962
      10392.11687783
      4007.98872308
      4712.65260551
      3724.69323898
      2851.69828117
      3279.89137334
      1953.48307485
      3325.59586288
      5890.69504458
      2477.11262379
      2773.25282085
      3670.23885647
      3697.72729615
      3395.46396433
      -347.78205711
      -737.31339355
      -1501.28687062
      -21336.21804100
      22565.84841525
      22626.12975210
      25913.47317410
      19499.97810634
      8837.89811784
      11271.25236175
      4240.30253940
      -374.24308662
      8371.27804204
      12406.56057585
      17385.96320979
      19833.17659627
      16627.96999980
      27467.85450493
      18517.82903146
      3160.96318389
      18761.11587119
      28216.94391514
      18873.12080037
      2248.42509014
      10159.50827498
      32051.32790184
      22117.76671946
      16198.55374693
      13030.93959309
      19398.08852373
      29352.25032241
      18022.92942364
      10840.18681775
      19717.33822368
      21574.24262783
      19093.92961416
      13434.73691001
      11030.47234255
      22788.79704628
      16451.12418239
      6994.66024237
      12740.21714800
      22980.76682799
      14511.94228376
      9766.15122967
      11442.99714737
      15934.65029661
      9401.84090716
      10856.66624778
      13837.69074672
      9255.43238703
      5609.81589992
      9881.72369814
      10573.92887870
      4918.30604992
      10256.01558385
      12602.32725265
      2540.86363503
      -20.36038713
      3995.80214327
      6449.17263285
      4595.68037208
      2898.40226796
      1999.08477192
      3762.64348310
      2164.80784136
      145.07482218
      26.45666618
      -134.38012111
      266.05332007
      36991.21209754
      35950.76275592
      20624.17907762
      55082.08460854
      13772.16746261
      20500.43208768
      18030.45226553
      26103.09510606
      3409.34112415
      21067.51268854
      21692.50456661
      17657.70801590
      12748.80299137
      20561.47174388
      17943.53041510
      10301.40490849
      25304.47689999
      31752.47128810
      20108.87259468
      5211.11944020
      21855.95547437
      19318.02799237
      24857.41886870
      16989.03441297
      12463.63991377
      18584.78739450
      18839.57131851
      22384.07826060
      4314.38033584
      20105.91305590
      21649.06414634
      17384.05462636
      9785.16855520
      18933.38657347
      19061.22294515
      13237.57311328
      10915.02071793
      16407.65144857
      20242.61308763
      17426.43349990
      12472.67387335
      15088.38217492
      14530.23194949
      11381.58645706
      9720.44903693
      11135.50455842
      10753.22502088
      5056.09786472
      7281.72099660
      10451.69800429
      4430.04354035
      8435.10734657
      9925.37189440
      1592.43589277
      7545.10947310
      5971.10735471
      1041.60063747
      4972.05368159
      3621.74180136
      1474.81228787
      2529.53508989
      2953.26922547
      2005.15535322
      -287.16242858
      247.03327670
      -18378.22992136
      26815.50423094
      23361.67303715
      6041.79877877
      22195.66881022
      28348.52034705
      21760.68518016
      15601.99407624
      13183.59132173
      20659.71126278
      15524.30700430
      15417.53176190
      23916.52620440
      18720.86889834
      20355.02601674
      13116.85764792
      17282.16194895
      22135.54507844
      13494.90422889
      12636.07232073
      14111.10367459
      17678.60869875
      18255.49951523
      22400.08954359
      18431.26768400
      13275.19922798
      18914.89586466
      13791.61932776
      17741.96634723
      13920.40106341
      15721.69493660
      22279.52572252
      25805.96231551
      14667.94365923
      8063.48578697
      19438.74294177
      14027.11176107
      9633.13550106
      13685.24785727
      16483.46700832
      15536.09030643
      8167.64978507
      9660.05191495
      12830.88360649
      9229.44521091
      10610.62045668
      13479.18077569
      7992.87987248
      6908.20747941
      10373.20346413
      10536.20298336
      7927.60780754
      7219.09129189
      7642.24186720
      4462.99936570
      5687.57892514
      5650.13316628
      1817.09853030
      2646.40038708
      2661.65727340
      2697.68037109
      4778.09139256
      2853.15473612
      1444.57460880
      -260.57905770
      815.17744687
      20025.73427724
      16158.80439854
      4533.52094171
      30310.85789771
      12789.10838988
      18018.61644588
      27435.53056967
      25958.82345806
      12728.76167377
      17634.64268864
      9979.33948625
      17011.72276306
      19445.81033146
      14752.20853384
      22281.16539100
      13364.35921366
      15117.09035279
      16463.41772504
      22760.98978158
      17471.05480430
      17016.39879746
      8660.92442666
      12997.35851824
      21059.06726170
      18228.68213507
      18913.46049155
      13778.09806847
      13275.86188421
      16356.64961438
      10383.60483436
      16682.43567571
      18095.12608550
      20710.09078314
      21044.35271472
      13729.41873073
      13211.73845538
      23343.05186334
      14823.93893628
      12803.81681915
      10273.73648104
      20690.20326015
      15349.51985012
      11161.76803805
      13220.54001041
      16127.53707390
      8085.54878915
      10510.17086514
      14226.13279417
      6803.50499286
      9406.95851242
      8307.67224147
      2655.95701114
      7234.49710382
      10152.49180719
      6929.37220662
      4581.52757490
      2573.57726199
      2148.98445221
      2842.40910610
      3210.18320956
      1836.28846449
      827.80258784
      864.26873759
      274.65359600
      822.91880971
      298.26950177
      18263.05044541
      10645.34300637
      8453.99015149
      16576.51054834
      18664.86424381
      45140.17239234
      9297.39663816
      12992.72952204
      26247.01863165
      21737.32490072
      18557.82941512
      14678.35202873
      11453.87739488
      11219.32886833
      15456.36944035
      11825.54196025
      11862.67629561
      6225.79842223
      14262.68005269
      24586.96327867
      18359.10180786
      7334.48856629
      15852.33336964
      17281.02637135
      21977.32062295
      12190.41450124
      11394.20184458
      17573.50901540
      22812.62414699
      16874.24771658
      16275.92136006
      14213.73490708
      16771.26595582
      15086.73867648
      8557.60897147
      10933.86581100
      14035.69087848
      21970.48466462
      15072.88025108
      7514.72122022
      11936.20419769
      7239.50204157
      15348.85618042
      16161.93481038
      8295.78652674
      5245.54627794
      9534.74303333
      13024.59652077
      13404.71993844
      11169.41111496
      9766.78282360
      7043.21904070
      5622.21747257
      4626.24318177
      1849.00786154
      6108.83932898
      4239.83774178
      2239.97986424
      4628.36181887
      2133.33459201
      2753.46537939
      2493.89364186
      2054.87960932
      179.07065174
      -444.01013814
      591.24722790
      -15948.54041123
      24553.88646730
      42955.92873564
      17319.96562061
      16761.76180137
      11250.16064778
      3095.79171288
      26233.72448280
      6322.54201378
      19581.54497341
      21769.23704972
      30366.49318378
      18457.65542232
      31734.71611463
      21925.72321251
      17327.59134457
      11613.72517551
      17677.38821525
      24531.15798813
      27438.62845575
      20840.05194647
      14595.08871415
      9165.82711509
      19507.07307172
      20387.84613808
      17162.94025194
      7659.09299076
      8843.55097356
      21669.99222964
      19294.98752234
      13374.87626631
      12956.14898399
      19515.75068794
      17038.23573985
      2312.98881556
      11471.80654574
      21831.51181740
      12636.59789821
      13140.20099152
      7317.84925543
      18067.44684600
      16056.41661066
      6423.69652076
      12477.90807244
      17638.82066015
      5805.53826949
      8517.38287451
      9789.16770628
      8558.35105569
      9426.94039652
      9074.75612759
      10571.80011743
      6441.79552265
      10629.66207231
      8868.58679035
      -67.38283630
      2763.06690645
      4350.79740610
      6441.65649002
      4788.86515164
      240.51328656
      2214.55644380
      1401.55756297
      243.75256866
      -785.21926202
      463.53193123
      16618.59594671
      27465.60308001
      27141.47756411
      17343.46790520
      30740.28897251
      39436.88857985
      21168.89956802
      5111.72488408
      23203.97540732
      20929.38197949
      6200.58466073
      10356.39472702
      15022.82130971
      17945.00690723
      19448.24324961
      21900.92368864
      9990.08305314
      16094.28266507
      14275.39864087
      18974.11647825
      18915.64126816
      13836.56093031
      15107.32348342
      13960.03581206
      25452.59941052
      21385.42096857
      14290.64078457
      13436.64694066
      17989.80994431
      16345.13892175
      6300.08297682
      21420.95176950
      26211.61339832
      14762.03035623
      10058.67301992
      11749.76829927
      15171.09542164
      12306.65366978
      18878.77667968
      14307.37132612
      16633.22065493
      14014.19267870
      5425.57570505
      8230.96013628
      16015.01815670
      11684.77521769
      8422.79794807
      15546.75251324
      11478.33874193
      5562.70255035
      10416.11240522
      11093.02361718
      4695.67901831
      9688.29572389
      10158.75456365
      4424.52272128
      7098.27599995
      5574.00714579
      2185.80507314
      4810.58407213
      420.20743159
      2505.57272727
      1948.35023961
      -71.05053788
      626.38868513
      -404.63621099
      -5786.05953104
      34131.79216643
      26109.02967540
      13916.57246795
      9390.66144260
      9506.56227222
      22072.33149853
      12292.09224589
      17213.98701487
      10190.11765009
      17003.68612424
      22428.05884226
      12385.46200947
      13449.93465910
      17876.67423088
      15739.48501272
      10771.14994643
      14791.04351656
      8523.54006143
      14736.47366343
      12452.60424026
      9978.53059913
      19965.81393375
      23105.38340218
      22002.70705360
      15915.34004498
      7775.97890632
      17096.33976345
      22243.56719548
      22229.96646006
      15487.71795128
      5931.31790840
      12855.63813112
      17580.95745503
      15203.48260368
      5050.61317548
      17134.57192980
      20833.29407616
      13124.17835604
      14367.18756165
      17287.74939590
      14586.59022075
      6999.98692437
      8026.78273353
      8269.77049045
      17275.92026037
      10038.92756669
      8100.81177370
      9746.80373594
      7727.29338950
      7785.03614628
      10494.57862856
      5814.36163885
      6418.40827431
      4401.06494591
      1129.71462279
      6579.91433822
      6723.00808346
      2965.39319549
      2806.35595119
      1928.51537521
      1826.25021170
      3048.52835685
      360.99551593
      -187.73932893
      755.17241769
      17704.46800632
      23227.06951377
      1331.45959037
      13948.85038995
      29689.35984361
      24744.52530039
      18708.86607865
      7727.31921002
      18778.25300310
      19436.09444435
      8690.35209374
      13104.69657109
      19689.40688308
      31750.22002392
      16375.69702964
      5865.50807087
      18182.15995461
      24339.92511565
      22042.18181631
      22871.75946445
      40904.90291156
      28566.21050999
      13899.36562707
      9196.18368730
      14845.74077139
      17011.48831768
      23435.39164661
      17828.62361673
      12576.42829595
      26888.00145305
      17891.07164543
      5632.27730746
      25308.56723163
      15822.95821013
      18807.16064982
      10084.80570580
      11356.55463145
      23082.62117707
      15100.96315028
      14856.97535118
      9852.43431757
      8555.37631180
      8581.82162389
      11629.06795289
      12409.80277596
      10362.47452661
      7884.57550505
      7877.45579586
      12378.30414896
      7442.65077765
      10305.88234943
      10179.91119037
      2512.61219595
      8444.14803408
      6437.25481905
      5828.41421577
      7067.48816398
      4646.53863836
      3442.13118816
      3155.57000853
      1827.73497067
      1838.56055622
      -245.02588250
      95.55175438
      31.10917463
      238.51988851
      -9857.39247656
      -4578.34407820
      11289.06593921
      21350.89054179
      13320.16948768
      -2976.53999780
      5658.30729356
      19161.39449196
      20894.01174830
      19806.01554381
      -1201.73831906
      6694.89587487
      19830.96916157
      22851.09903821
      16891.43976090
      4122.80194326
      17273.14171578
      14370.19611810
      18733.02175347
      18872.90793146
      12650.80380138
      21303.77210007
      16234.89197584
      10408.02133985
      9844.95428037
      15580.43303577
      27569.76475300
      13401.36137832
      10051.53283218
      24163.65834011
      17085.87978447
      5973.40016089
      14269.84023162
      15117.35150545
      24454.42567583
      22345.71326390
      7148.48103771
      11754.72787496
      12878.39492539
      3087.13269336
      11560.29193520
      16296.06967667
      15332.79524391
      8615.87463406
      5526.34407991
      7199.64558809
      5655.66613290
      10308.92619299
      11142.41696101
      4419.70727255
      7065.38542058
      10201.03428641
      7490.19163875
      7180.09498406
      8274.25708098
      5240.37131705
      7404.68733945
      3548.73545249
      525.95677543
      5367.17806725
      834.56413623
      2549.60225858
      2263.92828815
      1462.86089912
      -850.78203246
      1449.79139911
      9542.24409767
      34413.38903066
      36.19324554
      23571.71924098
      20457.62772076
      5983.41354304
      2037.43231321
      32463.54210720
      14557.46095629
      12805.05969035
      -5601.25778466
      13655.35197687
      19529.73461201
      23931.15836081
      3553.03307066
      13479.30930049
      19227.92358450
      22803.81721949
      9833.31240877
      14161.59774745
      15354.17287402
      12545.62956850
      19035.27232362
      11332.41898218
      18166.43089782
      20619.61029217
      9111.53696146
      9308.40098782
      10610.58992257
      9896.74850367
      12039.30130688
      6604.22975430
      4200.96768615
      12236.96525997
      6700.01340552
      7832.06933848
      11365.48568015
      12289.78908738
      20242.38142294
      13051.86174067
      8251.78489678
      12271.19277682
      9764.77326683
      5599.67221041
      13556.51937959
      17227.03987227
      8122.34936027
      4873.13195572
      15149.28216794
      13662.66949554
      5425.44253570
      6643.19000614
      8180.89650442
      5686.60169419
      3743.83815760
      8264.65626793
      2244.97693128
      6957.62004465
      4122.94052631
      4491.64704806
      2528.61050741
      3419.18388867
      2037.39752453
      2783.75813286
      -1164.77071929
      423.45875821
      -7065.72963047
      9619.57634291
      24530.94053627
      28901.01576572
      20031.43945348
      13049.25650454
      17904.44358793
      8003.02166432
      21014.74255189
      7122.62691157
      16673.50041984
      23576.70171683
      12646.86269582
      6319.86877208
      14391.12904008
      13190.61717314
      16493.59901241
      6481.59344502
      8799.60224006
      18838.97700440
      11251.82586758
      25377.71468647
      19098.97496095
      787.38754857
      13937.34346669
      14702.57323292
      13636.54562869
      10882.05625640
      12039.53545047
      7440.05322348
      10446.00767800
      8795.12737965
      10005.67852504
      5577.78827803
      11008.47524072
      13992.74763737
      12592.70486412
      7343.01788482
      9534.09219913
      9582.11386730
      3674.16063554
      8926.95078780
      15988.02392127
      15094.23758642
      6332.43898169
      12403.52699111
      10625.99151238
      5476.23183465
      8194.54605229
      7415.30393476
      7286.88198011
      10182.67436889
      8838.53556205
      4354.58501779
      4044.18145513
      6379.96153794
      1483.82564801
      4652.33727867
      4170.30660333
      2091.12424989
      2118.33310670
      2512.13524449
      821.22848219
      -347.89619029
      -19.56379326
      -219.04023595
      38892.42017989
      49383.03278956
      2751.21042470
      40970.86259376
      950.87378501
      19855.27584548
      8908.26664914
      2108.96588978
      20325.01024841
      14013.11673206
      2585.83663847
      1221.72760439
      10208.76224095
      13549.22813330
      10229.73728714
      11417.40028003
      8770.32429516
      10779.69096593
      15627.79891717
      13278.11652744
      8587.77382215
      13565.45125503
      19306.90140622
      12269.04289954
      12312.55471842
      6846.54556008
      13567.33816249
      24166.11571111
      9586.30261893
      7851.18818448
      12966.70848807
      21360.50155799
      7687.08696504
      11935.73290668
      11317.14753727
      15845.62300119
      842.15171473
      779.89355688
      9738.13546876
      14004.05528669
      11231.14162295
      5130.87618915
      7650.72556001
      9080.45607335
      1222.59466522
      4898.93429193
      11031.46696923
      5642.29214419
      3081.72092093
      6522.84073837
      3804.41303453
      6690.17464406
      5889.30420916
      4591.70964471
      3946.58085254
      7000.37656826
      3188.73268391
      623.87399020
      -49.18542227
      1019.52855391
      2946.68117870
      2671.36634647
      1886.46226343
      2972.11043359
      900.09955109
      60.18539105
      -28406.61596239
      -22234.47077188
      7825.69979448
      15807.58822566
      24742.81340129
      18380.77164216
      7512.19387271
      15500.23293889
      24174.38435573
      9333.86279632
      3002.66794367
      8366.35987537
      9129.75100999
      8793.09923123
      11877.84751172
      11671.73451348
      14671.92481185
      9541.53432614
      9625.59157316
      7238.02968201
      11179.59904510
      7015.69919637
      16007.18332554
      23957.48977724
      18878.99459308
      20472.05609638
      10627.68799974
      12558.53995201
      10519.57609041
      11975.66271897
      11396.96127276
      20046.71563552
      15835.65681902
      3828.24387234
      5925.14273091
      11068.76504828
      10606.53181599
      4632.98388676
      8836.07986055
      8284.79658819
      6463.62755538
      4540.24602722
      9662.39483547
      13544.55552120
      7188.19915716
      1235.25467457
      4345.69275142
      4900.52257683
      10321.20818267
      9786.95678147
      7754.89491769
      4270.33231713
      1066.21308976
      1834.88250967
      3864.40187857
      2090.50718012
      4444.70401829
      2380.23472430
      4914.00495386