<?xml version="1.0"?>
<VTKFile type= "UnstructuredGrid"  version= "0.1"  byte_order= "BigEndian">
<UnstructuredGrid>
<Piece NumberOfPoints="5123" NumberOfCells="5123">
<PointData Scalars="Pressure" Vectors="Velocity">
<DataArray type="Float32" Name="Pressures" format="ascii">
      948.25834454
      -21360.51950839
      -24120.73455174
      -25493.28008765
      -24261.99582305
      -28560.32273856
      -29272.80775739
      7314.33388840
      6487.82148589
      -23569.16128140
      16006.24443987
      -22140.43487678
      6988.27121070
      3043.50340471
      -20993.64946475
      7620.87295485
      4363.93508123
      -27025.94562458
      2302.61263640
      3887.44829635
      5231.41459199
      1940.51255497
      206.28591309
      -981.62587029
      -575.06939045
      6347.47683180
      23.38390391
      4901.78501960
      -2658.60930741
      -1082.39426264
      8627.46670317
      -6592.93573211
      -9753.48957851
      110.14741959
      -614.64985810
      -2476.34509271
      1149.30649547
      217.24146644
      905.87571486
      -539.22581791
      -3681.82657175
      -1102.53344556
      20.20971745
      3076.64835992
      -3212.34943247
      -3386.02954381
      -580.61175328
      -1260.29612898
      -4042.07404971
      107.28495928
      -480.82972195
      -343.62736168
      -751.57481440
      156.52496760
      -326.26744595
      -115.32395731
      153.67420471
      388.67115480
      2274.29550663
      5480.48214637
      -135.55452020
      -392.04997131
      1602.54345572
      -4.67647267
      32.23045606
      -347.73750526
      16359.19730718
      11513.92615371
      2057.20305254
      3752.49709444
      1887.34424675
      1749.73963628
      3534.38833106
      12564.28347805
      10195.48664438
      4474.47618103
      2201.32946004
      4823.94931207
      900.71364360
      5803.84536703
      2053.66247131
      1281.00205053
      1786.81891819
      3124.45220132
      935.65968412
      1304.23356282
      2691.73755560
      758.93816704
      2289.30884917
      2711.10205396
      194.79991614
      -1265.70591832
      7134.10907322
      1654.62869411
      548.73266953
      4095.57238528
      7023.45601426
      2393.30335568
      -3385.50951783
      -2869.29357641
      2444.51602135
      -10453.26710509
      -5798.82254906
      -90.63519705
      251.55791284
      -3431.40637099
      -2666.06379476
      1366.74643869
      -771.14429642
      2019.61716195
      5134.24903848
      -25.58808594
      -10509.98896790
      5350.82363797
      -8647.91567741
      546.67127940
      -3308.55178103
      385.11553834
      -5677.63887844
      68.17323818
      2307.69556368
      -1509.47618057
      597.45785525
      2114.33892061
      1812.37021741
      -1499.69414538
      307.02549103
      -853.30299403
      -1172.27747553
      -445.36670357
      -242.16799432
      1264.72901189
      4498.16816148
      3499.58754803
      199.27331861
      226.15268744
      964.64428910
      10667.82481724
      12438.54029129
      4242.23865203
      6448.33048484
      6061.65539787
      8663.77343758
      6279.94350275
      6470.07012118
      4710.24493162
      5193.12914131
      7678.40006575
      6577.92426456
      8687.79692337
      5999.17272576
      4769.07566672
      2379.28061896
      1841.57457888
      2909.38657857
      1525.08317179
      6051.58214500
      7262.70349397
      1178.34150667
      -471.92075805
      7705.07587672
      2686.06198210
      645.38227282
      7464.94599493
      -153.52784809
      3428.29723034
      5672.80280322
      5260.61883873
      2963.23051508
      -556.31739105
      2464.83774139
      1381.36706696
      905.85395268
      2073.09565397
      4955.67373790
      3475.53106885
      1595.31182672
      1279.52433139
      2997.60768968
      -3003.93368914
      639.81721562
      3180.60693114
      -6975.86482676
      2011.70640261
      589.17656025
      -4315.87706444
      4829.69886279
      728.59534066
      1767.53264338
      -2290.98919074
      1211.47600421
      5114.13659149
      4762.10658788
      -1261.43452682
      -309.10729618
      1224.06675031
      -932.68374781
      107.67356249
      -18716.99888393
      2484.60412655
      2275.93516149
      5530.69906835
      1844.03836458
      7164.69672759
      3187.48811528
      1635.64930688
      1167.82543325
      699.81677014
      4939.09144392
      3356.62267103
      11278.62409301
      2969.17583441
      5168.12235091
      3888.47933106
      4331.74038441
      4841.20734099
      5174.20891508
      8404.61030186
      1016.68057227
      3141.73270809
      2940.11391660
      3216.26586149
      2138.07468526
      3911.71064640
      3526.33547170
      8137.52119443
      546.58466226
      -759.27546449
      2571.71903405
      5164.81478507
      2987.83592792
      1695.64303945
      9861.81624216
      -5353.46490345
      1346.52375476
      1624.04864607
      2138.99739648
      224.44014314
      3875.24671751
      2587.02355315
      1384.43425310
      1302.41889611
      6690.52789760
      23.67301178
      5072.90728242
      4237.05958507
      -1381.28046929
      -390.54188089
      1870.39239036
      5228.60808710
      -3913.57422735
      583.06588038
      2936.97587032
      5604.95976997
      3117.92659646
      290.04375192
      1633.57051148
      937.99453430
      857.41777715
      -383.14242647
      1250.75491871
      -1832.37978788
      -1949.89515263
      -1204.85363349
      -27399.67254656
      16942.88471974
      8546.04069315
      8195.55341519
      5919.60867259
      8396.11226034
      2887.72833547
      9000.90767750
      2577.83318944
      3668.47881302
      -880.85474461
      -357.12235893
      -587.57440372
      4722.06786258
      8954.81886169
      5549.01716727
      2085.28263693
      4717.91957632
      12923.52435075
      9713.30970678
      6217.39730906
      5123.74620969
      4548.62662410
      3277.19035062
      5166.08385640
      1102.94565209
      1037.32820261
      1963.62459763
      4844.14490185
      7876.15377982
      4687.99258679
      5319.34360313
      2460.25038578
      -2991.21429809
      5527.46831905
      7328.21550600
      11986.05768960
      1811.14783054
      2636.13268604
      -1145.99462251
      1723.18738527
      5109.17911528
      5046.72938332
      997.36437646
      -72.71793198
      -1064.33597491
      -1684.80262641
      3706.27614366
      2088.03214382
      930.57462836
      2533.21503953
      -646.41761848
      -92.28502538
      4746.96418789
      -46.51639949
      6798.47966121
      -2863.88525446
      2462.04393882
      2039.26175696
      707.54280268
      2523.60197381
      691.13138329
      1410.70174041
      71.72567060
      -26.87317382
      329.35403030
      -20980.90566408
      1671.55912245
      2451.58480823
      3229.17964536
      4017.90527618
      14024.27658066
      7589.95354400
      37734.06499010
      8317.42486195
      10847.64360640
      7703.49875826
      392.71829806
      -5397.40302642
      9992.51194799
      2826.14727110
      -421.25370925
      4243.58271687
      14434.30698494
      5767.29047130
      4693.56402109
      2803.19806427
      2487.75410280
      1795.01980999
      1576.47943528
      6214.61062606
      8051.21546862
      6931.06983218
      2282.34031296
      931.67666730
      1758.86440718
      40.51491451
      3398.17185116
      5061.00800454
      4252.05154301
      1178.71760478
      2049.40192318
      2155.86333329
      3760.91615793
      5813.21408541
      2877.68900400
      3269.36594079
      4645.36178106
      4537.89935704
      54.12969786
      3853.61305504
      1993.83824629
      4596.78732802
      3509.50212274
      391.25770182
      2828.51438230
      4646.53584858
      1146.20632523
      1967.87053328
      843.61250986
      3978.85733342
      -922.03307540
      1390.19563246
      1804.17818123
      2887.96849372
      3942.93856383
      80.91990442
      2780.88790439
      2673.58472116
      899.39400274
      -712.19218033
      -334.60469431
      1482.96081633
      4236.96787930
      10009.25923696
      4889.84774206
      -456.39200323
      7455.20184333
      5424.42931727
      6955.82595840
      11032.68767427
      15700.47035434
      12176.12181443
      4088.71051738
      3555.19575302
      1619.92422436
      2794.55780393
      236.25640418
      311.16648173
      1073.93138220
      6690.93133086
      8873.59483384
      3345.71515905
      9228.54202533
      6049.36255405
      13047.33001674
      6889.01465970
      4725.90888145
      167.00317410
      6114.17777259
      3307.00313839
      5113.81614229
      8332.00615289
      9192.98057886
      3891.88930275
      -2322.95741399
      3894.59387258
      2272.95181938
      1397.87874620
      7584.18555509
      4687.88692835
      1137.27967900
      319.80756830
      5771.78105308
      3860.59728817
      7440.03335933
      1388.72696577
      413.45809231
      5093.46250400
      4002.66469820
      1768.90448334
      5406.71262206
      7027.98076493
      -867.99842971
      1267.66687481
      4962.87067984
      2404.96814282
      1416.74876171
      2514.43946866
      2845.58456952
      590.74842914
      4688.27876236
      2145.09080703
      411.95300228
      1371.28401758
      2745.78860842
      -649.85613704
      1547.72006338
      9557.17689646
      3488.33486481
      9111.97539819
      7608.79142566
      16879.60068777
      14864.20881540
      11488.77591600
      3622.66795321
      4512.47298390
      8823.28793412
      11524.62603911
      20775.61217274
      3185.49390395
      2171.79637703
      3694.97762323
      -6909.54218122
      11694.24258333
      3581.81708646
      11959.46443954
      5560.10012066
      3874.90796475
      15679.07000385
      6362.88359895
      2421.41079395
      8467.27231200
      326.77633055
      2915.00309743
      4330.25064666
      -6195.96953519
      7577.95907056
      10819.60325922
      5922.08035169
      5115.68289493
      5141.24856934
      4914.70687748
      576.21912090
      6194.00540515
      3900.33209460
      7282.62299429
      6939.33563898
      14.20806102
      3357.68176436
      9811.07305749
      1423.61225475
      2426.28858799
      1517.09648750
      3792.51695099
      3831.50456599
      2065.84241746
      596.03309141
      3435.10105712
      2965.32908671
      2212.00598044
      3303.80706182
      1491.67265768
      2746.22885886
      2818.45423995
      3788.33500987
      19.09190532
      2562.72871191
      2944.77077422
      4554.95410421
      2495.70099398
      3995.51802320
      -1364.10735187
      945.29454278
      -21336.21804100
      4783.10000598
      8605.54005388
      9395.99480994
      1545.36489730
      14603.49036548
      7959.85406163
      3676.68158444
      12308.31066767
      10740.98576741
      8688.48338211
      2775.87245353
      6416.68286136
      3855.04215408
      -2589.49597627
      9727.49937027
      4739.78280168
      17868.18500643
      3062.65899007
      11818.97973676
      -3579.90441456
      2357.67946878
      4319.15864283
      11383.34521650
      2702.85133825
      4456.98383569
      6777.34035129
      3260.39506399
      4503.91867088
      6776.86617375
      3784.76561268
      -762.52117431
      5279.42019118
      8464.33363260
      1657.77084647
      6877.71539476
      2349.81300136
      -1125.05519147
      7528.65577024
      9805.48669294
      4325.39929415
      -659.10480658
      5880.45447196
      8417.43992885
      -818.61787237
      5635.32900180
      -313.78933991
      4485.66919114
      4271.46744850
      -905.60995405
      1561.85183225
      2294.70289102
      3635.79724449
      288.89383122
      2358.62198694
      3260.59594145
      2497.02816997
      -47.08138003
      2112.16363547
      3082.50815002
      1286.18204560
      1501.54964637
      6067.36698347
      3831.95767008
      196.08808703
      2255.31064330
      20730.92788047
      15443.04514006
      18650.07899989
      6830.19319245
      -966.73469491
      5404.53960610
      8981.64219378
      -539.53849815
      262.31609502
      5076.65952291
      13725.75990137
      5003.86940003
      4942.43543736
      8454.63471008
      3934.44246359
      5212.93419501
      3399.53166376
      3266.74640125
      5730.23823740
      3472.30789901
      1768.16693365
      2029.94373978
      2790.17456097
      4546.07825055
      2077.22549523
      3173.48287704
      3471.73132385
      3135.94902922
      3147.78647634
      3261.52097796
      1787.35421512
      4862.14094745
      -1644.69472979
      3725.71500221
      6482.70308734
      4206.72560767
      3288.14177731
      1271.23159316
      5879.10099480
      2623.43226724
      4226.87482414
      1564.46230981
      -1040.67684593
      4588.18343698
      1293.94348329
      5833.77087645
      4402.19913801
      7035.68367419
      718.86217056
      2185.88159730
      1316.07233804
      5290.50051591
      1561.68453951
      -1609.23671039
      6476.98526790
      1226.01581272
      3950.18164624
      2236.89520014
      1122.64696393
      1099.60144925
      3378.02777529
      4144.46700687
      1369.48361670
      1861.32757518
      -1567.48628823
      678.01304191
      -18378.22992136
      -7023.74842318
      7560.39666429
      2969.73424303
      8817.52452118
      23249.35462624
      2489.66966298
      6792.24614953
      1508.59434861
      5843.37269147
      -232.55676326
      5472.07039190
      6639.48843245
      6572.82348342
      8681.56584461
      5737.86761194
      4494.74688597
      6293.21280240
      509.09259688
      8112.00690187
      1642.17211444
      4783.17347970
      3495.30905305
      2950.14265602
      1949.53369975
      5290.42839375
      12248.82066544
      4601.51315700
      5952.43593875
      5241.97905589
      5401.61188314
      -5271.99548325
      -1475.83049029
      3743.93961695
      6349.66377162
      7986.37754786
      5731.77157611
      4824.06976799
      743.66138441
      4378.49107862
      5153.51888514
      2954.74316664
      2779.52048892
      2560.41500454
      4292.22175154
      4071.25833034
      3260.21284319
      1789.68810355
      226.19359189
      1810.22081215
      2535.12894691
      2897.24021799
      1519.57848164
      795.59778122
      4321.99469017
      2896.72034984
      -1058.39566969
      -1044.41480171
      2669.86530017
      -284.46610132
      1414.04636814
      3538.82343176
      2167.73442390
      -19.19227783
      -260.87327387
      821.69453067
      6480.48541587
      10833.76792975
      5654.60762779
      6048.69524984
      5672.95670303
      4131.22046658
      7248.54627705
      997.20710648
      4128.34899975
      5659.43610639
      4776.48572950
      917.64868919
      3505.81818672
      1862.41767522
      3589.33796074
      6349.61517879
      488.32887364
      6522.16682066
      1710.39879709
      4496.59315374
      941.48708542
      3336.91596824
      6681.18002271
      4203.08944995
      2501.71926770
      4059.22064903
      676.64402930
      1305.91398658
      1303.26414615
      1542.08804986
      1990.67071155
      3340.31221460
      5167.35575042
      615.08301973
      3027.55876807
      4773.18666043
      6606.76828637
      1082.39509152
      3263.55896002
      5290.20513726
      6019.50919208
      5386.88566474
      6502.87245603
      6458.46016798
      717.99605067
      4487.47440251
      2058.47075098
      4325.11788948
      3493.15604237
      3587.15362853
      2268.10591650
      1916.68539111
      1096.63555377
      3536.96727646
      1346.06802197
      1804.95082809
      2497.12665234
      -945.27403590
      984.06516596
      -1513.33981464
      2292.33194181
      2706.71555129
      1411.86457138
      -4044.68085705
      -156.20710842
      598.99336740
      11901.39978963
      10266.09772225
      11087.84366225
      959.52228049
      7769.30477027
      5430.90196655
      9087.04229688
      3320.12225950
      -8553.38693266
      13028.94713519
      -2238.84134503
      6851.90715337
      4383.82158589
      -4971.84690692
      1313.05398725
      2650.80588573
      7862.27176984
      166.67345682
      -4899.50472316
      2729.23327993
      4832.06215407
      -2991.35920984
      1288.41560746
      -1400.65357392
      11032.18260538
      4626.35350268
      5449.74799121
      3546.86857843
      5652.75163624
      -4311.92029170
      2254.70912901
      936.66016001
      8843.51131764
      5228.03943857
      596.91047799
      6354.25472813
      5171.73171219
      3494.22857746
      2742.16627482
      1437.15580538
      4873.74744501
      5116.16455134
      5041.11151227
      175.54790509
      1647.02919960
      5941.05625610
      7136.27687143
      5634.24897034
      2972.00243061
      3605.31201505
      3359.13043301
      3020.89435603
      2473.32115379
      2524.49487137
      739.85801487
      3901.42525547
      2149.29938332
      3766.62067427
      1889.76802482
      -1807.81655143
      244.02090320
      2419.36527677
      3105.58744604
      -1461.15572461
      895.09836048
      827.82481271
      3562.52817630
      8795.26009921
      4733.27537672
      13165.89740284
      6016.69954352
      8398.17871606
      15325.72415422
      3804.45348142
      3146.42244741
      -3822.31615130
      7647.02381201
      8605.51836144
      6134.28599991
      7882.95148201
      3311.88308234
      -609.88929365
      8229.39977459
      994.46580732
      -6236.25348913
      6898.54251738
      -3455.71315257
      -8204.12150001
      10946.79033851
      15995.76693198
      4038.49456227
      2302.57948709
      1304.83205970
      -819.31117569
      7882.07228322
      1855.45828979
      2776.12854702
      792.90090956
      -3788.28574820
      2634.25165527
      6614.52456334
      7620.91263716
      2347.60217513
      -316.75933397
      4870.11245351
      1572.06753040
      3367.11310726
      4113.35074737
      3649.63069551
      4839.43396452
      1455.78848338
      -556.83121281
      1879.82596796
      3206.20022768
      4125.41128868
      3722.48432184
      2235.16015512
      2669.08076497
      3187.16877675
      899.35815218
      928.37089834
      2252.28563678
      2269.23149959
      1990.84405487
      3796.29937049
      -168.14233773
      441.60131684
      588.95098553
      569.06031799
      479.14805603
      567.93631564
      609.24527801
      5987.90860038
      9341.54905909
      15662.19767096
      11347.85532818
      7827.45968231
      -6884.05457443
      4829.96049995
      16440.06541141
      -7021.72336735
      207.31980979
      1678.61078740
      15044.99267516
      9069.45954927
      -3204.40738983
      3211.43810457
      3303.14713101
      3797.67484456
      -1173.03699231
      -2629.69832651
      6368.47939114
      2114.43714406
      1376.37494201
      4998.07379432
      -4290.22387623
      1861.90139679
      5270.09952310
      7155.39626994
      482.16536789
      422.93507908
      4956.23951662
      6224.93295550
      4245.29219299
      4975.39463943
      3091.43832477
      2349.97730940
      2464.19498938
      2700.11309739
      2331.16805558
      3785.57655869
      -128.48580831
      2419.35854524
      2108.00541043
      2715.40048338
      1776.04052751
      1315.75792814
      2829.28442762
      3419.63788746
      1142.37760604
      5773.45292700
      4070.32719398
      1222.25861135
      237.06234255
      3741.11351287
      1492.62580132
      905.39155815
      1845.42176461
      2127.12863822
      2361.26103863
      1327.97023880
      130.99379103
      2570.93507781
      2373.18024935
      -572.53255417
      1174.07120470
      198.07849163
      -138.99392542
      -28338.34729544
      6606.68693232
      1036.96600426
      13483.91409800
      -123.25239463
      6392.60331232
      20007.90886299
      -7059.36957829
      -4611.39072074
      1773.98153700
      894.37326087
      4336.49161712
      347.18205261
      2267.88252058
      1491.80218258
      2499.33744117
      -2027.03883428
      4276.09255051
      3805.24007720
      578.91536649
      2696.67313943
      8401.84338095
      -332.70565267
      5884.88842163
      1716.02258477
      4022.13809396
      3639.00436207
      7470.65593805
      3095.96196830
      1239.66362196
      -98.94796463
      -3163.15684217
      1812.48462305
      1635.33960950
      3925.27406320
      1133.02287873
      832.84895440
      -1082.89408524
      2732.19454673
      1006.41803830
      5682.02591541
      2094.30653244
      3535.42225736
      1690.27549320
      -3000.68095198
      -690.28071128
      703.54429268
      3561.35738761
      1026.51014964
      3690.67816271
      -1786.72513834
      3021.15180890
      2457.84335551
      1129.33598295
      385.30099765
      2567.39005987
      1876.30832078
      1810.07231242
      3493.66778156
      1112.05802504
      -1388.53883478
      3592.67646175
      1276.49698050
      -2555.21424531
      81.02425613
      734.70002419
      4427.56279301
      6917.50483205
      1144.24066650
      -8669.82948442
      8758.27915722
      2604.26838306
      -1180.06417231
      3370.97517696
      2985.25510616
      15359.74201349
      -568.33039011
      2148.60709168
      1451.29546926
      3264.46212382
      4597.48913035
      6834.11209529
      1935.75199626
      2552.06307659
      5804.36667912
      3755.76948357
      2231.99300077
      5850.61879455
      6156.25257697
      4652.51940171
      3285.17431116
      2028.15428235
      9882.58259686
      8101.50848519
      4780.87179599
      3725.16617012
      1336.98653433
      3428.14010690
      2587.97705221
      3242.68569394
      3389.09986043
      2440.50319999
      1847.39716667
      3326.31323034
      3911.05017729
      4900.30235573
      445.32040590
      4268.39701714
      1781.24846345
      2757.69954303
      -94.12188057
      -480.21314475
      -1949.92792070
      -2256.40413282
      2464.00402686
      2645.55913431
      781.13452642
      752.55342529
      3190.55277971
      84.27654809
      -104.65091214
      421.21625101
      4864.35971103
      -190.65827660
      324.88190502
      -563.87477889
      -1227.66087207
      5438.75828692
      -124.62550947
      -401.11964463
      967.98784362
      1707.98001069
      5679.00018499
      10737.30268392
      3210.31283222
      4451.80062890
      -1508.72137606
      4221.78396538
      3691.42014232
      1355.70401571
      2113.50585402
      7918.84560812
      -2389.13521818
      -1673.42042522
      3189.27138964
      5972.13508967
      8955.57174255
      -5373.79129401
      5771.64652123
      -13017.31609612
      3577.13064694
      5466.87231049
      146.34854876
      -1487.50935384
      4228.77120226
      9249.28509553
      3874.26445245
      4307.96892303
      92.69179802
      1777.20866868
      5226.75268788
      3405.52202421
      1669.87406588
      -208.41006681
      2119.42359772
      -5238.61982024
      2475.24216110
      4314.27433787
      -11.49766609
      422.54638672
      2881.75138862
      3250.18893471
      4336.46545566
      2167.57407473
      5897.91312696
      5104.38444460
      2805.21795442
      -1850.60612450
      -2665.34952733
      1282.84183084
      432.31014116
      3149.85422776
      4399.91907997
      1687.39257874
      1335.09625680
      64.44224774
      -335.10917568
      -1323.58140917
      3279.75500528
      1888.25287723
      1043.20131696
      -795.29028795
      270.71262769
      4410.82701184
      -4517.95226278
      -45.64167572
      865.04960896
      73.83440016
      -30962.88851667
      6593.81333602
      -1666.80034012
      -3390.39239907
      3233.72671985
      3548.41573505
      1673.43167108
      2780.00053027
      -2413.24687091
      1179.51753572
      -5941.13487073
      -1560.14835491
      1078.86639185
      4054.49074000
      6279.83686397
      6642.05671800
      11085.67385902
      23.93371751
      10238.47897110
      4135.79406364
      -2180.25619562
      -2523.29469645
      -846.76357267
      1127.40154631
      2812.62013625
      -1501.14835272
      2300.08586482
      3285.38382661
      1599.68474632
      -458.51295978
      -1120.98195779
      2299.45062727
      1816.72940735
      -2770.69307383
      -383.76479129
      1598.41992264
      1555.06914348
      1792.30123466
      1713.82589944
      2142.13377838
      2544.62952414
      1364.22848864
      2512.89747716
      1001.56995470
      734.50587700
      -4088.86451104
      -1559.26544586
      -3204.40355299
      171.87542079
      3234.65790642
      2450.14028681
      2338.98221528
      3734.86867904
      1333.88386503
      -2451.07133187
      -833.55159935
      2621.45667280
      -112.56865687
      1839.61274941
      -2112.11945561
      -960.23293593
      4855.60166856
      -2337.62563118
      -256.72386346
      1477.16995945
      -236.22749746
      -19317.15986296
      9314.77323699
      11948.65302058
      8408.69414039
      4397.46578147
      5911.31316421
      -1049.40307191
      782.05645204
      1852.00439830
      -117.40225244
      1231.24157514
      2625.05496110
      1653.16775013
      2946.39918484
      4102.40298959
      8467.19055910
      313.46068069
      -1972.90273140
      1932.53927520
      867.26568898
      4260.68124213
      3412.63987588
      2866.96484131
      -2461.69675934
      1896.03644419
      8351.11336614
      1678.48310836
      2034.98161573
      3254.97797530
      4911.81856315
      1587.56186340
      2470.85380639
      1255.23803162
      1589.77839216
      -394.07792940
      1628.08906649
      729.60166000
      -1263.20498290
      2741.34127381
      3926.66212414
      1366.57551801
      906.71191803
      3744.19476621
      1773.72344927
      803.81221384
      178.52992627
      408.91720884
      455.77845740
      584.92387762
      -538.00292741
      2861.01914006
      4262.46537807
      556.80815991
      2361.55201219
      1301.26967007
      -39.20042278
      4295.06332150
      3444.71515555
      308.17013852
      -906.10688660
      1635.52765986
      1223.21823749
      -2174.95815145
      -1176.42134082
      1697.29145652
      407.50378546
      5800.11563596
      2762.79111604
      7784.04529230
      -312.50262190
      9715.31908489
      6053.11454964
      6693.79156332
      1796.73531538
      3256.36207942
      939.80038245
      712.25361015
      3722.77532811
      1641.40249771
      2050.97639991
      4150.06660855
      -3345.85681284
      3087.79831105
      6539.54034293
      12586.81958617
      3504.68839524
      4304.17293743
      -2139.44126864
      -307.61530341
      -780.76167706
      7497.73629525
      -2604.72484034
      2130.51388105
      4781.92090443
      3359.70539612
      -525.80070358
      3966.02223775
      4815.89682427
      -902.01037576
      1554.03852815
      -3192.78593102
      -3293.72437321
      -1319.19810733
      5106.40004076
      1175.60028876
      453.43031485
      3974.83728334
      4955.72957898
      1240.37221549
      2008.57468808
      1762.59418457
      3443.40927642
      2686.12863421
      290.91538201
      2026.56869504
      428.51432390
      2279.03163778
      -1135.55008512
      3053.55861275
      2805.97578126
      1913.17187888
      857.12273713
      -10.19930850
      285.41441362
      1498.46077334
      -557.19040645
      2530.44360679
      3958.71996640
      -2805.09555929
      -851.65170004
      361.23871832
      1029.09382160
      -1414.03565750
      -3071.49490473
      -221.62821089
      15362.23086709
      2861.41430005
      2345.34578882
      -481.23984742
      -2863.80559029
      9900.14349424
      10774.39467447
      3266.31358376
      1820.14482927
      2227.86704853
      10660.17618881
      -127.68394558
      -7613.54009410
      23195.44338290
      4444.57348863
      2818.27592189
      6089.17702953
      -1837.25570815
      21449.54075215
      8685.28297712
      -365.91416203
      12929.48456693
      3035.73411209
      1003.43559410
      -776.02811636
      5540.79769400
      2257.13577635
      1613.67280282
      2752.18003690
      1923.22270524
      517.59643824
      2891.20830055
      2273.60995057
      1760.32025199
      1729.14492651
      2208.15447016
      1613.00249091
      3059.10604606
      481.98940684
      -742.88691248
      2406.79529580
      3067.82113631
      4359.33475706
      -599.18304753
      1423.11630174
      2106.31160660
      1824.91297701
      236.12814661
      2221.56960761
      2536.74730092
      1401.59666902
      -2016.98759671
      1257.19158096
      895.07755135
      1159.39033238
      544.37753979
      1336.61456868
      -700.41486969
      -1642.29272411
      -1067.18286835
      45.97289019
      1231.62744039
      660.17340824
      -40161.08078057
      1683.70300456
      3271.07667791
      9497.09160712
      -313.85015915
      3204.18567573
      11008.95673932
      3794.54295917
      4215.15008003
      -1847.33803825
      1594.28029715
      -5278.56340894
      12487.14373199
      -276.91106644
      11900.17505712
      14035.86931021
      2373.96708017
      4096.64589218
      12727.99120312
      11429.30637881
      -1056.40685653
      18375.26001636
      -137.69416601
      9812.49158364
      -304.37696962
      2023.26124293
      -2034.75600688
      9607.87661043
      2036.82230469
      12514.00133147