<?xml version="1.0"?>
<VTKFile type= "UnstructuredGrid"  version= "0.1"  byte_order= "BigEndian">
<UnstructuredGrid>
<Piece NumberOfPoints="5123" NumberOfCells="5123">
<PointData Scalars="Pressure" Vectors="Velocity">
<DataArray type="Float32" Name="Pressures" format="ascii">
      -44.08475597
      -17821.13885233
      -23963.80106712
      -25493.28008765
      -24261.99582305
      -28560.32273856
      -29272.80775739
      978.20116011
      301.37983254
      -23569.16128140
      624.96395183
      -22140.43487678
      555.17987450
      225.35242104
      -20993.64946475
      535.09253317
      0.10347540
      -27025.94562458
      984.02307593
      512.62635203
      -3807.47528317
      191.01326706
      805.79791533
      278.67125269
      115.82416673
      74.16959696
      430.41530556
      1099.56866256
      -55.73889708
      -394.02568984
      199.16317653
      1338.80888223
      1391.75541176
      860.00315135
      -261.37075435
      649.51420105
      390.62245283
      1175.25370333
      -711.55830319
      -359.55031449
      -384.37443507
      147.12190929
      813.88324257
      -555.39068023
      816.38136724
      395.69234670
      -28.56148058
      -56.88024789
      -961.50046912
      712.25465850
      -281.46597408
      -434.26214712
      -1315.03335998
      -139.95342678
      250.97893316
      19.28990258
      -486.33697352
      114.68926786
      358.51562363
      1480.05990445
      595.36186083
      273.59509388
      4.77047590
      279.25849155
      370.16671895
      980.03895698
      3941.03084286
      5389.50317142
      147.93911136
      806.56112025
      325.64072372
      552.87488616
      466.69928172
      1318.27106494
      1496.79749760
      3219.91652841
      483.42620699
      1507.79130331
      551.20981033
      97.81604585
      42.14829800
      176.17947323
      1095.94257716
      47.30130260
      1361.04489474
      -52.90341329
      258.36681970
      -307.74401230
      1255.01311219
      -2176.90881598
      714.86007408
      -457.60417118
      -1142.21780957
      -1469.12103741
      1665.93185103
      636.19902161
      -714.36505399
      -514.93444590
      -2418.30840917
      -1005.81116116
      570.10664110
      -254.56771928
      722.46426990
      -1547.28594142
      90.13823532
      1300.56505596
      429.90607153
      708.04349709
      -2124.93344763
      1419.22784377
      -1179.59858965
      -1091.87170986
      160.64265354
      740.21750634
      -278.76926769
      -471.72946217
      -343.77896899
      -641.71560006
      765.95806178
      1149.33278674
      -2721.72204719
      480.14260716
      -280.58041412
      -1145.14242610
      17.67146777
      1759.20702858
      94.28875597
      -422.55475582
      236.65972311
      357.28712287
      -284.79438629
      324.09391676
      -24148.52814249
      1196.05410007
      603.28947477
      751.94540504
      1535.94663055
      -112.98105718
      2549.00428435
      563.75938544
      951.60604104
      1457.04612221
      1441.71085411
      1971.95962910
      -885.64621259
      -278.09529911
      -6186.27135260
      -1138.16806609
      968.05007304
      -263.78450895
      562.97753489
      -709.13115920
      802.70161687
      1880.95339113
      -284.51817380
      1693.18240233
      3333.31206477
      823.00502440
      1717.25174228
      1008.72129225
      931.40270075
      1048.82345456
      503.78005726
      546.60772314
      1129.45834351
      903.25693352
      2255.58578704
      3931.79916479
      1963.97602930
      91.46610322
      3361.63283950
      339.69679910
      -504.49579452
      -2732.35719393
      599.21264773
      4892.13872206
      -1909.53834783
      1364.11985832
      -403.79950620
      -1763.12552245
      -267.99185853
      606.99853010
      367.60567316
      -2534.48322554
      -11.87541316
      756.05916983
      -229.78597848
      229.33179990
      1759.71855457
      1775.89430853
      -288.56509635
      -2642.54895139
      58.98505855
      482.87548273
      234.92340639
      316.98975037
      -368.83684108
      909.56108043
      -18716.99888393
      2096.02372338
      822.41430090
      2565.61867402
      4098.04338898
      1742.25501454
      1781.47657806
      2757.70622522
      1066.86289654
      876.16613339
      -83.73241966
      1876.46675404
      2431.54883499
      1258.16611410
      6176.59930080
      788.13865167
      920.24045170
      1911.96635706
      2697.67363101
      3705.77035633
      2323.53923058
      2251.82633968
      1937.19366804
      1611.00105459
      3433.25515127
      4023.27037179
      28.14673276
      3181.42807991
      -1036.68427097
      3709.02224865
      2387.65655804
      1659.57026265
      447.40271137
      -968.56048919
      1035.55465278
      1190.64467229
      216.16520582
      591.23676831
      -911.13089688
      -1489.12067567
      -1273.85851996
      -2444.63754543
      580.86028929
      -320.08855621
      1268.95284038
      157.22223795
      1809.40224890
      -193.94504471
      -844.53047584
      240.36493167
      707.28093693
      1518.34855749
      2278.89563735
      1169.49453518
      582.66425707
      -34.05564300
      -835.85312022
      -1131.34851905
      658.17967375
      284.84240718
      495.72830297
      348.12801095
      -395.18825320
      -3068.14226580
      -298.97974505
      1592.52521795
      -27399.67254656
      4190.61145833
      -1383.05119525
      3468.37190864
      6550.97572220
      5102.53781455
      189.03477642
      3607.10871389
      -730.80754222
      2886.31998101
      2110.92062239
      249.27683954
      2507.37396103
      1122.28685375
      1800.14855576
      1520.62763483
      181.75271400
      1971.12793558
      1542.26100123
      2512.66767701
      219.40129081
      683.70844605
      591.19388859
      813.92625162
      1875.44222804
      1858.78696942
      791.48262466
      -410.21064717
      2929.33112292
      2329.72142401
      1710.02905223
      2033.29319031
      1445.37690886
      2727.33407467
      3310.66928333
      -726.83263457
      1013.07166370
      1281.10007890
      1556.09782507
      2841.32237704
      2278.80674143
      925.55291612
      1218.05100596
      3434.69213871
      -964.32702148
      175.12199499
      -90.96319413
      1579.10070029
      -4.54705923
      -1854.55493210
      -751.30412918
      -1203.60758559
      -1843.13206832
      1878.57532875
      595.18005031
      72.23869824
      4753.43055446
      768.86159747
      111.87322019
      81.76636950
      616.32842739
      449.03737262
      -3423.60130133
      728.96301387
      340.10736140
      362.80872225
      -20980.90566408
      9698.78403417
      6301.87650033
      1185.99805639
      474.30292790
      -20.64391673
      2110.48069535
      2495.34182444
      1912.85315113
      2461.32798624
      2251.28474921
      3677.09517549
      1733.42713546
      1108.76913405
      2832.32624577
      847.79253500
      469.33595620
      1136.51025639
      902.03272989
      5098.33686745
      -948.80144941
      1566.15519918
      1024.39189574
      -6423.81126443
      6978.55358146
      2310.59866021
      903.52759111
      782.95040267
      1488.98655076
      2435.88174157
      -640.85529537
      -4466.19595604
      3448.00060947
      6599.78333236
      -1.82984602
      539.39373240
      2663.49047321
      4450.57021829
      1761.36281778
      995.05538036
      -695.30203562
      1420.73166880
      2809.76601418
      1030.53161472
      1815.17170900
      2008.51716660
      2269.87895419
      2802.61678872
      2128.03968406
      -11.79189078
      1271.73248583
      1858.48536321
      -333.16029316
      756.43630108
      -471.33717983
      -310.33174247
      451.36701989
      33.75002678
      620.91060646
      -71.96995756
      887.08193788
      1785.16256121
      2634.30684990
      14.43259236
      -1551.47552685
      -2263.48051789
      1952.62082105
      14607.21059106
      1873.70057027
      1683.95141558
      3309.35976596
      4406.45016034
      4753.54070277
      2966.07591573
      4632.69045651
      4982.31017891
      782.24620380
      11030.99076128
      518.04960748
      -2843.61127167
      4677.68597067
      923.62917623
      10295.65201024
      3734.32581396
      1627.08084713
      -1132.63035488
      717.58326937
      795.43646468
      104.91366632
      4122.91995566
      5761.37588885
      2130.69927641
      975.14008690
      3909.59530992
      1882.30424275
      -949.29412631
      4937.17456453
      715.91009628
      3802.66503170
      -138.49201180
      -0.11010681
      -3118.34994470
      782.77758782
      -514.81401858
      1040.75986995
      443.85026944
      2776.35127281
      601.73597816
      1920.49075372
      6479.06136565
      369.12942201
      -62.07957920
      2895.66066799
      1211.79891112
      -1893.93657229
      2144.32828797
      5435.60470189
      1392.87298470
      2399.69209910
      359.65494599
      531.49453939
      -155.71188370
      625.60029842
      326.11105664
      -1007.54376901
      -2265.49919920
      469.26346173
      1704.60705728
      -255.89933336
      -155.33276177
      452.85741905
      56.21911638
      4930.75106635
      3833.09886790
      2213.54745929
      4700.77867851
      7444.34435984
      3922.52047934
      3968.48366011
      1075.47488711
      -1478.95193948
      -132.24827406
      3059.74725530
      3601.52564421
      127.45748504
      2721.21421169
      5377.84678870
      1488.91494612
      1548.81407007
      5273.81833005
      -241.96725754
      7011.51291457
      2255.08099058
      2815.90177425
      -2152.42436001
      -307.42450499
      336.00548292
      2395.38161869
      -2119.33608564
      4249.72118320
      2486.24725476
      4507.09480983
      1495.11739012
      1135.28199523
      788.89582453
      2708.65775913
      938.57246142
      658.95030258
      4069.03082756
      4101.25714616
      2646.88010733
      537.30642223
      6890.45319967
      916.19403089
      991.52068026
      1772.49129023
      2522.22211607
      3626.11371789
      1449.09922213
      -94.37426521
      4751.99078091
      -362.50330864
      1775.67084401
      899.31829029
      488.33548181
      1561.93893179
      1362.14099109
      872.71072752
      1747.27228216
      -1535.62543187
      -2451.53268563
      3197.77718598
      -1243.77794418
      976.57795377
      -97.94042244
      -1580.23781371
      -415.13587640
      15.78281735
      -21336.21804100
      6475.00741041
      7945.65730384
      6414.04704418
      6540.45492381
      1817.69791915
      2025.42029955
      525.23165907
      2769.19832871
      4726.11393278
      -1514.63815387
      3331.37996210
      1296.60678405
      1738.49254382
      -3479.74282392
      2747.79037192
      3345.15390593
      1967.95261167
      1368.21091008
      418.06921787
      3197.31973863
      1389.62531617
      6254.57645314
      7155.91326061
      4205.83708252
      4029.50667740
      3165.59525025
      4896.48807022
      1754.80831938
      1039.74710037
      1271.41340252
      954.23767161
      2623.54599678
      -18.58525979
      542.48212309
      48.27790377
      -1800.01064101
      -3168.56754016
      -912.20989758
      1730.30715518
      1353.77737793
      -725.77783932
      1100.04335011
      1037.25456642
      -991.91121988
      1868.47006542
      6825.54431183
      2167.70139795
      4338.23290438
      328.66698939
      2861.45670176
      1150.30084433
      428.11729908
      998.92693304
      2.75423052
      554.06115606
      -170.10242315
      1206.03856148
      1377.01674673
      1373.91520953
      565.01830947
      -1485.87112469
      -1277.82116737
      -994.09857356
      -449.23660969
      -718.59965407
      12518.34615776
      12941.50118501
      5988.88547853
      -1818.77256610
      3356.08033355
      411.16618651
      3749.93944351
      1110.03890493
      2776.24372946
      1676.56149412
      1994.68905092
      1202.42723858
      5022.27660777
      3839.50040593
      2633.35583854
      2892.88775713
      2943.54166990
      4218.25488273
      1326.54620531
      -197.32986190
      3075.07070597
      2099.93790808
      2337.47208145
      3014.29528155
      1504.94122204
      -471.02916982
      -378.36348141
      614.93864366
      561.55128581
      4983.54573135
      1520.57159021
      349.58137655
      2431.15783024
      2166.54772237
      1568.42165329
      386.22346913
      553.08329153
      309.03604714
      2409.75430034
      614.81742050
      191.42989684
      3939.22025559
      2104.11628708
      2903.65154889
      3819.76343956
      2635.48961145
      1342.92428929
      470.85596500
      960.37501693
      -33.46982877
      -1492.06698414
      931.19853581
      3321.54814612
      1774.80890472
      -247.09996625
      -524.53177718
      -1095.87111502
      1033.21332469
      2757.35478775
      -850.21052552
      239.00851957
      537.93471945
      -649.82361757
      -1766.80937190
      -75.67025008
      -125.28230857
      -18378.22992136
      -4715.98007891
      2391.39684424
      2240.18939763
      3582.39611316
      743.75000068
      3641.98126390
      1857.03566795
      5667.11369040
      3655.10897897
      3106.83193606
      3064.24568922
      2288.78008309
      9338.20678915
      1473.56813106
      745.82700753
      1100.74242738
      2577.14825057
      -2674.92876812
      -1636.47484108
      741.78697734
      766.42086385
      -819.43815863
      681.73270818
      2670.66406357
      1597.84926204
      1482.46756234
      1236.18560525
      2279.79007597
      2119.22237541
      3326.22485623
      7876.30525633
      -1191.45647975
      6997.25183259
      611.56547472
      5156.61691148
      125.09383789
      1561.90569116
      62.11221056
      4874.72058052
      1962.34348317
      1895.15519412
      6355.84093787
      -2445.18040047
      -256.53800119
      3296.63005694
      -296.31197059
      2352.11549350
      2620.42385314
      4412.30918845
      1927.73917508
      2545.20334337
      -2659.22857199
      1711.40091960
      -1728.64296426
      428.63398154
      514.49919704
      499.96220058
      -381.75893376
      727.29763619
      3514.09221769
      78.98476109
      592.71691105
      521.61583470
      71.28778232
      396.29322706
      -10330.35124414
      6282.04604757
      2541.91394134
      4523.52733200
      1961.66754376
      1764.29804793
      3928.11908642
      4496.17304213
      3893.47910278
      1460.80169588
      2044.87290711
      1063.49448488
      1876.66173065
      1097.70782981
      2083.06032077
      973.65663868
      3328.37776115
      2598.17331632
      930.09078640
      612.75652219
      5208.61331245
      2509.74083002
      3247.60746402
      2231.23332171
      1144.00971408
      -1712.61306418
      4476.51707832
      402.10639209
      7391.61265983
      3442.43083000
      765.35188016
      -2794.97358371
      6579.23762113
      -967.99854617
      2248.60329403
      -3061.51369845
      6614.92763320
      291.27600068
      -400.22094724
      -238.20869232
      1726.86842979
      2523.82088263
      4449.77374097
      675.24694994
      1580.01033992
      1620.55820481
      3516.74855350
      559.06973388
      -1124.86847399
      91.13262680
      4060.87525175
      614.03400646
      -3514.25994352
      3447.34946063
      1518.14727200
      987.27782662
      1292.65366497
      694.47237619
      1421.70441465
      -424.09185382
      -246.20865458
      188.17003515
      -303.67276698
      49.66556973
      411.82620252
      -11.96490907
      -3000.97002152
      7044.05001302
      1550.00246416
      2471.55924583
      3024.44100185
      -413.17096668
      6165.67193255
      2387.24707785
      3779.30848493
      1222.93309853
      151.73335412
      608.85201847
      407.31907517
      2147.83547939
      2542.43426387
      1317.97639576
      4727.36575278
      1140.13524356
      2491.92505400
      434.50054705
      4424.26613787
      2561.29189882
      1630.59924566
      4857.62566447
      787.59144341
      3689.13341876
      4589.42542038
      1611.14984590
      70.40112676
      7648.51647033
      2288.95606823
      1294.88404245
      7672.22321360
      3393.79231654
      -1905.55018407
      2819.24333900
      3220.75120072
      1646.00189610
      -306.03251543
      304.53955630
      801.02856258
      -6792.46701453
      4255.28214098
      3284.50093160
      2223.56448447
      2832.14087535
      3144.02286509
      498.71204688
      2571.25977957
      -2076.03146054
      -2705.71706285
      -687.64251187
      2328.34879156
      181.22857539
      3088.12316974
      1990.59326779
      1257.24879270
      -2060.69531156
      -178.67212227
      236.43914595
      354.59267153
      257.99330709
      -585.06351950
      -521.44431084
      -365.60113386
      -1058.32995302
      -7886.36499036
      -3911.02036205
      1431.27046099
      2156.98686156
      3586.68938545
      2716.47971336
      2277.55248230
      1467.78618978
      4148.05203950
      4115.00543045
      3396.09594792
      4927.03384585
      5291.31825783
      2085.81873904
      1377.11120416
      3914.67242492
      -5553.42550638
      3171.91256213
      2045.61557874
      2445.10620088
      617.31908831
      5989.14355568
      442.72462129
      1399.52463569
      11360.16165025
      3013.61753159
      7402.48390499
      1048.43584966
      -3094.36453864
      -14.76425876
      4684.54295739
      6496.22163508
      3638.20526027
      9884.13782796
      2310.71963247
      -3931.43720517
      8217.20038237
      -2245.40712674
      8197.25921561
      437.52391737
      2694.77129733
      496.65937834
      -1022.23763357
      1438.22049696
      -732.71009601
      5385.39022926
      245.19899259
      1957.27551491
      797.84305731
      581.48188583
      1762.02047126
      396.97809468
      1396.31987552
      2379.66256520
      2150.01351895
      1698.15738539
      1631.65076072
      259.04100451
      -40.23676411
      1653.06504688
      872.50336276
      -123.35048380
      -224.86396525
      -313.68520863
      -833.25229406
      -79.59030805
      4323.01303539
      6572.28678163
      2816.13264344
      1465.38006915
      7657.17984441
      1276.41550660
      881.95493034
      3647.63616597
      3676.16761945
      7415.65374775
      4506.68634948
      3979.69875439
      9372.08651855
      890.52826613
      2529.17506405
      2707.54375018
      3764.24074103
      2013.87612840
      2375.16207902
      2072.14355234
      93.95309080
      -1950.91472126
      -554.07836831
      7133.44712723
      5214.91891450
      6397.58969192
      6691.34432070
      8452.25598207
      11711.60612778
      892.11612547
      13152.45308197
      -288.22134419
      7349.01730888
      7374.86499676
      -1314.66014416
      9124.10236721
      11060.37857804
      -3017.41893237
      4946.40703860
      5221.76677900
      2318.69600048
      4062.50391694
      13160.45216642
      4777.78396143
      14312.81086964
      2334.53736726
      4232.29153467
      3282.92049809
      3270.95612758
      1685.75695193
      653.71467161
      -431.98836729
      1105.26660727
      1878.49212627
      861.88571170
      2114.35116361
      1959.96671016
      1829.80963854
      1020.58446068
      -577.12892005
      1722.98499502
      1300.16434627
      -626.89013108
      -1008.30238089
      -252.73734896
      5431.35279065
      -28338.34729544
      1584.26827593
      5782.15567091
      1418.37511169
      3939.16350836
      3050.49449655
      8090.44362810
      5777.48154528
      2435.37281131
      8250.82502551
      2099.36933943
      9923.42762621
      17775.00945926
      6571.24593841
      -3489.53008834
      4877.46854085
      3560.71795717
      2678.22791997
      3593.06537276
      11512.55158158
      5656.89244149
      3237.35373519
      -1950.28086961
      4337.01902066
      13020.91433199
      6378.23283649
      3369.85462389
      5086.90532437
      11277.66241380
      -4545.30689215
      11462.41802734
      9544.46133424
      7443.26705348
      7206.43232187
      2376.65442580
      1299.14213721
      27.78308029
      4540.03499073
      8217.64518453
      3540.94000450
      3205.37489451
      4576.56405139
      10087.53635835
      10530.48330774
      2696.04446520
      -5285.59067141
      8426.44773419
      6372.17018966
      10257.89890327
      -1074.10217591
      2119.37352308
      15668.13902593
      3311.75879324
      2960.87142215
      3352.40290906
      1250.94302310
      4074.38040973
      -2504.11447304
      -9733.14993985
      -3149.31520813
      4247.70391660
      1720.43372633
      123.90062949
      -2022.85294461
      -688.16955134
      1140.52101008
      4340.65544529
      3468.01650873
      1179.03880549
      2666.34753101
      1619.01114175
      7296.45983134
      11059.47376040
      13330.68207558
      10849.21203091
      1779.49087254
      5472.12810075
      6198.88979363
      3512.39203153
      13096.95989708
      5817.81086906
      5485.03329148
      4411.06569517
      5490.57021516
      8410.74505899
      3895.27598030
      2502.95627296
      5897.55461109
      5365.81304180
      10829.42450896
      3514.35515287
      1472.85022504
      21276.25674689
      5551.88940875
      11430.60832709
      8201.74544895
      9120.41449321
      8881.86684403
      4333.06294636
      12778.22067282
      3129.92330063
      8503.39464571
      2861.94030411
      1105.00288122
      12554.44681352
      1857.09208230
      2349.46647603
      1286.79125892
      -3359.35377921
      -370.09947919
      8391.43435778
      -492.48142215
      6708.09661922
      5309.10354334
      -2741.98931514
      4110.38632784
      7107.69233122
      2801.17210103
      1847.54730901
      -10136.31507342
      -1317.31114021
      2829.96123588
      5254.66657912
      3804.92697408
      5023.04734389
      1510.64312787
      66.62266799
      -200.24220227
      -331.56820352
      -277.73059735
      -73.55370731
      12215.10188168
      3433.49943973
      4119.82670000
      2390.77773025
      2355.65445543
      6672.58298511
      7119.71706712
      -9764.39168786
      2405.41964665
      356.23899491
      11214.49637190
      3430.00392985
      -3408.80683058
      2542.81770636
      7350.04020031
      8468.30988579
      301.55181908
      2319.18174373
      3664.34123404
      6202.49920361
      2519.20032555
      3034.72680257
      4115.03961977
      5394.91555809
      5585.23390458
      5413.33127255
      11172.58600366
      9919.00307065
      14408.76684451
      12101.85076576
      -3380.33761428
      21235.32258411
      11795.33612526
      5756.99445412
      3962.21518310
      1148.78421186
      3459.97098579
      8596.88724535
      4851.34090764
      3818.95265950
      1767.03963521
      1730.42572600
      5119.39926290
      475.45985592
      8293.38108776
      1325.75916247
      4305.63953393
      346.80244447
      3415.71792268
      4519.45874796
      3212.38913477
      4537.68087334
      2185.04873970
      634.16221334
      8801.18867120
      -3455.07625548
      -6809.00470440
      14637.35626155
      7081.25431332
      -3481.71832206
      -1189.15620746
      7304.04798485
      8018.01947248
      2022.29752216
      -7115.63603457
      24414.54984202
      169.63978043
      -30962.88851667
      3792.53221054
      2907.35772521
      3871.53753248
      9140.35817589
      12507.32531675
      -2681.57108241
      2229.41831882
      5585.78364839
      11765.29008178
      5809.90150008
      8153.73738901
      11206.92953782
      4307.83794839
      12201.79075006
      5911.07191401
      4029.06791852
      4019.84821050
      2420.97902006
      5862.81122948
      4834.99061383
      4662.27370819
      6089.97466177
      3255.83797652
      3420.87030596
      8897.02312836
      5954.72922245
      10741.47161979
      3066.06700187
      1935.40419580
      3065.15137225
      3880.96085307
      8067.03302648
      1304.73581494
      9334.35366473
      5806.90834771
      1385.26142931
      3643.80583290
      4282.80028746
      -908.42727021
      2989.60560635
      3560.36272876
      6180.50053779
      -6483.04792195
      10944.88124709
      1437.54756420
      1964.06425531
      -96.85337788
      1964.84028530
      446.03360603
      4227.08715429
      6205.46372928
      2131.19149858
      2224.80166551
      3227.44231236
      1951.70659530
      1333.83988452
      5935.27554908
      5906.56226067
      3289.28231285
      -2902.68322009
      4594.43806660
      7095.60913802
      4102.39419904
      1476.17121018
      10256.95020961
      -19317.15986296
      3439.32525334
      2870.21063280
      3247.11101172
      3866.92724344
      13498.65079902
      5437.63922619
      7980.15531206
      10220.78644365
      -757.13235536
      9069.69787964
      17449.37195154
      1652.30600061
      5605.27611523
      11422.92793475
      13794.23247077
      10767.50914323
      4700.37190890
      1849.86358343
      4925.93760564
      5968.69408565
      7105.29180139
      2925.37989912
      7778.78885733
      11552.72948574
      -1942.49885280
      757.21802383
      1800.66510090
      4891.02440392
      3987.92171423
      2899.51920637
      9396.11568759
      12844.87101774
      11149.35438724
      7550.64331575
      1702.07865056
      6661.24002226
      6483.33831624
      3780.10090956
      3164.81517339
      5185.18946850
      2677.43513859
      5190.30861910
      41.90468965
      1997.19805472
      4709.10163146
      3186.95578382
      3567.06643314
      1998.08978178
      518.53038371
      -2729.82803706
      2930.03302265
      4163.70304283
      2625.62934487
      918.69218832
      4269.82712816
      1916.53765088
      9928.20244211
      895.54875616
      139.02244901
      -1319.62003588
      1277.46360450
      2532.85004515
      3516.44142754
      15651.29782704
      1187.88762551
      3211.75720808
      4101.91480352
      1989.66576332
      3311.31327716
      4998.50177109
      4518.67155236
      8425.68456079
      13094.21284953
      7880.10289411
      9288.41824133
      -1949.56479135
      13538.16753432
      7513.98506418
      15630.14998143
      4495.61325686
      5518.56690338
      17043.98883146
      984.14424901
      5020.13553069
      4558.60866738
      2467.23290550
      3915.40849082
      2988.85834090
      6381.51643107
      2363.42080542
      11757.09596655
      12057.37831543
      5784.29019515
      2501.17760219
      5023.59487214
      4778.53359823
      1739.23939300
      7451.15199863
      2278.00928138
      2487.03499540
      1459.80911747
      6479.16488710
      4105.19616748
      2824.64134255
      3203.81794687
      -422.46414253
      687.57127810
      3856.88054411
      162.16273639
      3903.41578696
      13119.16151881
      -852.05834788
      4478.91480127
      4503.22546800
      5617.97516691
      5967.87649764
      6526.87316701
      5558.08463973
      7185.48648514
      4553.58217611
      14343.21898791
      4980.47926086
      616.78707862
      5396.39445984
      -4653.04545463
      -1593.72075737
      11163.60214997
      -7598.52976056
      6424.86823524
      -486.45947634
      -1781.35844167
      4072.96363672
      2074.02879703
      4149.95769833
      3085.68821158
      -1745.85989909
      6354.44865566
      10932.25176176
      7925.88797342
      9954.15664574
      7851.01318755
      4674.29423555
      9187.69902823
      5200.89395775
      3417.48999880
      3404.89304358
      2348.75118440
      8461.85709352
      -1340.81639000
      5233.20706083
      6631.92546036
      -3115.08992243
      7750.61800347
      2662.37029723
      9520.21871976
      6804.72016428
      3708.38485958
      9739.20759451
      10711.81483697
      6449.18040673
      6072.51484133
      1125.89252372
      3348.73207524
      2163.78005545
      1292.29861301
      -290.54506108
      5213.92900371
      11579.55582911
      -2820.20571839
      -1133.37560832
      1238.00905135
      2570.28420371
      1534.79915637
      2462.31572059
      10934.68468923
      755.96877608
      5974.93204576
      1073.19650703
      934.56816059
      1736.83390718
      -720.29931353
      4011.78467389
      1730.66150040
      3561.37448441
      4591.58725715
      3580.18873146
      1212.57798452
      5543.45423425
      2726.21449894
      6919.20582919
      12606.84158330
      9479.76365315
      252.22035874
      7261.23320281
      126.25051725
      -4894.90884942
      9239.06425773
      -40161.08078057
      1547.27021319
      5237.08554559
      14194.57520265
      5588.87154425
      2559.32724948
      16547.75641411
      6234.43230504
      12811.45442854
      1553.72016872
      4488.02299194
      6567.48026353
      14360.04501595
      -2179.91893496
      -1695.17139882
      7146.30586917
      17324.31708223
      648.75034216
      3020.28536192
      6124.54437318
      5810.50648075
      2721.10810732
      1557.58947030
      3648.93789751
      10777.85662714
      4436.61172065
      1247.22139326
      9800.28716694
      4757.51077635
      -703.89859895
      4728.07668590
      1419.42908522
      5573.40414177
      2223.42523692
      8075.82450976
      3931.86793223
      4375.04684447
      -3113.91747668
      1943.22310294