<?xml version="1.0"?>
<VTKFile type= "UnstructuredGrid"  version= "0.1"  byte_order= "BigEndian">
<UnstructuredGrid>
<Piece NumberOfPoints="5123" NumberOfCells="5123">
<PointData Scalars="Pressure" Vectors="Velocity">
<DataArray type="Float32" Name="Pressures" format="ascii">
      355.86492761
      -16497.73027750
      -22787.28983541
      -25493.28008765
      -24261.99582305
      -28560.32273856
      -29272.80775739
      -147.63402389
      -714.44005564
      -23569.16128140
      -118.35725373
      -22140.43487678
      684.71642991
      -618.28415862
      -20993.64946475
      944.47915245
      112.70977966
      -27025.94562458
      -359.48068775
      -633.80233901
      1134.83313298
      -544.56959279
      1810.58452956
      369.04212045
      -270.44316019
      2488.86693975
      3013.50953510
      720.87208969
      -24.59122952
      607.32856180
      374.61030428
      438.59081872
      227.43562536
      145.14710107
      1462.59318768
      77.51814472
      942.73649725
      -266.95247642
      1721.31115136
      1199.52709546
      748.80239178
      1549.32221808
      488.13559577
      714.86036617
      1587.38447389
      -784.95534477
      3075.65328070
      5667.51073105
      -1293.95493635
      5431.09373797
      3462.37911500
      -4435.14940628
      1880.57386652
      3437.13531467
      10750.83152509
      2928.40790066
      -1866.24780558
      -6498.24328064
      829.22046541
      1559.19030208
      6076.19054622
      3416.59524764
      -4687.51695241
      1635.35522456
      -2280.77037878
      -4222.59069400
      2189.97687880
      5389.50317142
      258.95310353
      2118.17541525
      325.03982880
      1045.61224337
      797.38668570
      2411.87566415
      58.34353074
      1829.33134127
      -50.68396119
      2635.24701912
      464.79033771
      679.61645858
      316.19970600
      710.90905807
      810.81912193
      226.41290620
      644.22224635
      619.84160282
      -54.51458072
      4751.40366857
      709.21574970
      -129.64300436
      -8079.76190081
      6477.44179715
      729.10910253
      -24.64087721
      137.12427721
      599.50099357
      158.31924590
      715.33001246
      393.52137710
      -82.29352343
      -130.19108749
      -628.55842806
      107.99090914
      451.49977356
      719.07304288
      1225.82743799
      -125.71250917
      666.44683794
      1796.97883325
      73.53791231
      1017.71695938
      897.82560394
      1248.57011015
      4352.24738096
      -1139.37712284
      1076.65100580
      5844.13845415
      3565.05719915
      -4936.60769352
      640.34086748
      1316.61545723
      -5543.80774434
      1586.23086247
      6514.15657636
      3523.75791216
      -1108.55589459
      -2119.68801915
      -60.66102805
      -1348.76505301
      -1360.13341276
      -5528.04767670
      3478.91004584
      -24148.52814249
      -268.78198749
      322.62967338
      958.62248541
      1212.32338300
      3029.24476161
      1224.79427716
      829.83951661
      -1544.82286075
      -450.30675201
      1327.84952998
      843.16085638
      -926.54739540
      -1074.10409971
      857.48096496
      712.57671684
      -1003.90718217
      404.05128517
      36.05567795
      1869.11653107
      -701.92385827
      610.90274163
      147.32636561
      592.69073832
      1964.52327333
      50.12477783
      -646.94867201
      1475.76870333
      -933.41956883
      208.67275619
      509.13071598
      772.57028691
      1312.68413394
      5.25082326
      -5926.15314954
      -108.86677268
      1492.89831751
      20.83129613
      1685.45245212
      2072.71621739
      3877.10613965
      -1153.35182510
      3500.20111918
      -20.32161394
      290.82273516
      3846.34494486
      1355.24272026
      1191.83155648
      -816.82308959
      4094.45682629
      -1357.71723231
      -1241.75181731
      3482.64385209
      833.50793108
      4873.35994425
      693.96563935
      6719.94047440
      4784.80515022
      -5305.24120301
      1969.67200836
      -4463.77059494
      -5811.78451529
      -1387.52006534
      -479.02208237
      -2091.18359129
      1346.23545855
      -18716.99888393
      740.40204138
      913.74369285
      1955.31132807
      3776.13281620
      -1905.54523397
      2139.99402209
      2601.35561719
      1510.09431324
      1145.66767231
      1892.41485299
      2453.76151818
      2400.59250837
      1434.73682882
      690.36120047
      1130.54429827
      539.51473504
      620.30690328
      496.33291211
      1578.46692721
      1717.58241115
      255.33586004
      -102.58827017
      1891.97181006
      1462.00049613
      3224.05954723
      -59.74545796
      -255.94064643
      779.30763279
      1086.56861494
      422.45737965
      5169.12276980
      -631.98514939
      -28.36639869
      6828.29374210
      -2372.23139746
      2124.82399370
      -637.45411597
      292.37466664
      391.04869637
      4158.02402880
      -3356.24277602
      7586.00815739
      -13531.81042633
      13324.70709612
      -4775.70856294
      3259.61195218
      615.27484381
      1792.78231793
      6872.59157188
      8601.47445970
      -1241.45495028
      -3589.93021869
      929.87299815
      6411.91646819
      2942.93779491
      -1321.83133351
      255.27940097
      7020.87987436
      16270.58874508
      -9669.02472701
      -587.60262761
      301.33820085
      1463.12004235
      1193.60325032
      -1498.94582873
      -27399.67254656
      2038.99052913
      5867.74986538
      2805.63996815
      3048.22092008
      4684.23088788
      1172.04074519
      1104.69514203
      1894.64380428
      698.30345049
      2524.53250032
      768.19357404
      459.50738004
      2152.97932914
      -167.20119282
      545.77456404
      -1141.03881708
      550.89193560
      822.87493423
      576.99284449
      -121.52894673
      2291.38747003
      959.73534357
      749.98485938
      246.68761916
      310.89647467
      576.78448850
      517.18055306
      963.60415158
      2006.50729116
      545.13652058
      589.80425788
      -1085.32295960
      525.43806584
      3060.36041819
      2830.01372520
      1817.30377525
      824.70443075
      1131.98932289
      -498.10680850
      1244.56574479
      -176.07371690
      9231.88370729
      5281.21117734
      -80.90756024
      4480.33068791
      -66.18498206
      -10699.63172288
      321.01842004
      5960.45335852
      12260.11684455
      1028.63337504
      3517.62449002
      2718.26832392
      -72.24107650
      11718.16931803
      -8494.20041781
      1098.73589039
      2942.90419270
      479.43017912
      4847.13917134
      72.59756686
      7492.84526420
      3861.82288680
      1049.02458614
      8610.80234137
      -20980.90566408
      6074.11291613
      4401.96255987
      1706.90609531
      2292.83738288
      1990.13597720
      2521.10117744
      3839.95103252
      878.83351876
      2290.63277561
      4898.00588429
      2057.70444414
      2154.01436174
      4612.51291696
      4660.97903443
      1913.61347623
      2725.23259089
      3086.62901728
      4670.60151807
      390.75650051
      6221.98924428
      71.93524826
      527.26216621
      -231.89216020
      5630.26342174
      6861.42041222
      62.81676503
      899.47940318
      1928.78764616
      949.71403721
      51.85980180
      628.14582674
      2122.24728414
      725.85407992
      1775.65528955
      2544.79098114
      50.30427593
      750.57914257
      2113.02070120
      2545.33821726
      4072.53972659
      3801.56058943
      6775.01285980
      4522.05986614
      4532.39721174
      5017.31523273
      2315.49101984
      6405.16805592
      2870.66408017
      2126.74714385
      2083.88767519
      -120.65642944
      534.88334240
      4756.96204187
      4099.27560204
      6908.89457748
      -550.06749486
      7190.63716936
      -4694.33879530
      3074.88773801
      2220.37265153
      2252.03796738
      3290.95402359
      64.54898379
      4106.14805771
      4834.73129304
      2520.94296896
      4891.48564655
      1679.54599607
      6064.15730327
      4259.43045335
      1583.28987263
      4148.10501750
      1257.24195275
      3192.52043102
      6975.89462833
      1522.75744936
      2748.92039569
      1777.97758036
      17.68929284
      1900.78307551
      -1508.63661947
      1348.52648967
      2196.14696509
      1548.73431518
      2246.87168311
      -358.30212086
      865.94712288
      7016.58021463
      8975.03985761
      4926.95243336
      4710.59028959
      2482.98235794
      7640.56623338
      4930.97989170
      2308.46198817
      6740.10788527
      2653.77727806
      2840.40171490
      1483.32847642
      2704.91349755
      1595.49593412
      13738.92696102
      2925.62281476
      8665.84646174
      5189.27130170
      2538.55868295
      2828.08574569
      3185.07011671
      2181.27688894
      1475.86429895
      -1677.31415181
      2647.68089254
      751.78438090
      422.18380385
      1865.81243454
      2790.74288360
      1079.60685709
      1238.31363416
      7015.83845070
      -2348.27036692
      1631.84204347
      2988.95047983
      4228.79855143
      7928.07427884
      3978.96786165
      322.20674058
      2512.53861753
      1394.04227091
      3289.01064861
      1884.78235665
      7277.21351130
      4741.55353465
      3476.40969946
      4626.26255560
      3982.05331735
      6781.18393684
      1088.40242433
      3787.45520373
      1988.57113339
      2758.80553314
      1307.78873719
      4995.30029870
      12362.04362410
      -427.13186276
      4180.29595192
      9996.61260555
      1113.35099854
      6140.32160198
      3060.49215466
      3929.16484233
      7778.51919837
      7681.72146929
      1181.57091623
      2022.95404195
      5829.53539286
      4475.76813174
      8300.30417903
      761.80768598
      601.49161462
      1205.08874148
      11519.21060315
      5837.94413449
      3922.75545748
      -3287.62064347
      3343.03186180
      2535.67711054
      3088.96806354
      704.52867470
      2613.92877328
      5257.05535908
      200.72262826
      3465.35724468
      4197.39738419
      3012.31932899
      4245.34893538
      1598.43469701
      1723.46001629
      1164.39102322
      3482.23881797
      1458.09219761
      1545.89630048
      1341.19606730
      1682.00518672
      -81.55109735
      8846.09087404
      4644.31164247
      3675.37540783
      5065.85136403
      5309.47380062
      10764.73179556
      804.01743546
      245.59349740
      1572.02976304
      914.15814326
      1030.20466105
      2621.29803542
      -282.16553900
      -21336.21804100
      5464.79751400
      9920.30613452
      1781.76948769
      8071.75621611
      2664.92310830
      10094.55936421
      7323.76351795
      4114.73434354
      4444.09742600
      7822.83573893
      18734.92360905
      15213.96534180
      10448.51474403
      17121.27085958
      1450.66608184
      2280.84970757
      9186.69488711
      1785.64430851
      13390.13619701
      7773.29326783
      385.37068020
      15579.32764709
      2823.49745413
      6868.87840182
      14463.62732839
      8323.19926857
      3699.44377080
      -183.17981150
      6861.59311674
      14769.58241800
      5099.02280251
      1159.03066242
      9136.42148406
      10537.47402554
      3538.49476705
      10954.88470139
      -10.07972453
      4407.44919664
      5599.29871792
      6352.02024916
      5714.41896014
      5727.35061316
      212.08736124
      5389.80638411
      2824.31137827
      2820.71360807
      4013.33170321
      4796.36397937
      2794.31964117
      1334.01250169
      2997.82438354
      7627.46328328
      11476.79894904
      6578.32095450
      5706.16682050
      3768.13379674
      -425.95640500
      4433.17360792
      1091.30394677
      -5275.95660211
      530.52936433
      -1781.42120268
      -319.36355719
      4914.85887316
      6788.26764292
      2387.03696514
      -16161.55176151
      1430.01907345
      239.42395964
      2442.21698597
      6613.57603246
      62.74243481
      3937.20730197
      13353.25075900
      1.01114787
      13205.20913434
      6527.54456913
      2469.34252239
      8745.38752192
      1118.34205620
      7290.36159174
      2875.40740206
      4805.17517064
      6844.25193598
      5712.40229112
      4363.60262340
      4934.42828602
      5229.83628878
      4773.01933082
      2298.52910606
      4360.93926702
      3847.70734180
      2995.27162881
      4659.98379863
      1062.14487618
      1685.07828207
      8223.93253865
      7625.18847051
      2261.85932269
      10662.57308447
      5937.10762592
      3584.52568710
      102.33464228
      5117.36031458
      2711.65647944
      3128.02781264
      10279.91241909
      10765.71157424
      1551.99302031
      8894.44288336
      3205.50729596
      4174.24571756
      -2477.30560990
      1952.02642025
      8185.56367159
      1430.78798162
      1832.69521617
      12645.57631268
      1309.07437969
      6549.28186641
      5557.65858919
      6230.13661379
      6529.47190160
      5169.84207112
      7940.17155010
      6094.42021308
      4529.24992707
      -5788.90183892
      -2515.82227927
      3068.62944551
      2130.74110507
      -18378.22992136
      -5122.03323266
      2040.39927508
      8535.84702727
      7881.44746220
      -8226.90279790
      15519.77330602
      8086.02501398
      17221.06418098
      4019.06005263
      10149.32934546
      11944.99732482
      5920.05114458
      17312.94717267
      7530.84119395
      3404.54947899
      1654.71622776
      2771.93386658
      1270.98418621
      620.37661063
      3483.58854033
      1023.60373272
      3499.10980593
      2552.41758744
      845.23311653
      3461.56840425
      -1125.15068326
      1568.28831770
      635.02204081
      -35.63118004
      5913.12393519
      2812.57348986
      3226.86109302
      5922.76912220
      -1466.88460365
      4752.12045846
      2704.61355660
      6.01834993
      3386.99453017
      5943.82105285
      7364.46710105
      1597.67646737
      6343.53880470
      2155.57276095
      -91.44762469
      -2181.42567783
      2318.71153528
      6716.66266134
      -266.88999172
      736.92984192
      2539.94704559
      3073.77561299
      -295.20495158
      7357.10639735
      2199.03272336
      -1282.57981508
      1631.45508282
      5036.44247398
      -1697.46757884
      6059.37557044
      6159.82820910
      4503.26160929
      12458.00213418
      -368.86942973
      1521.91142471
      5865.53719648
      -15857.23209146
      3025.61226089
      6825.29413764
      8335.69210173
      10005.83199366
      20114.50919632
      -11899.14902311
      14920.03680734
      2917.08242615
      16964.92172188
      29840.51866208
      9344.39814190
      11036.95712659
      13482.34022109
      4819.68960478
      8999.61819789
      4068.50916489
      6775.03466875
      2469.90583581
      2313.26238434
      1652.25849254
      2362.24308043
      2688.27624988
      7325.12761740
      1553.99837617
      1966.35951409
      -889.82235446
      -1185.76158797
      1019.30850453
      2245.06809240
      1097.89680438
      604.05249303
      3332.53775553
      4175.63888348
      5419.49240305
      1565.84249440
      4299.69608747
      4235.56115474
      4390.28521674
      5172.10431206
      3486.31715430
      -2047.04371788
      9657.54362037
      -214.23549926
      7273.60315740
      372.09075716
      -2461.35533201
      -1666.07232924
      3260.64459276
      4754.48059326
      -2728.62590043
      3249.92920972
      4554.52067462
      -1521.24547276
      2548.92925298
      6101.99175644
      2071.47717406
      9050.31879484
      2436.03161766
      -3804.10402901
      -1162.92268942
      1940.03922188
      3702.93511786
      -2082.57635384
      2002.44173698
      508.57699317
      -2462.08509208
      3577.54013348
      6038.80473477
      7446.20403566
      4182.04794815
      9255.53484890
      7586.93046472
      6351.67603123
      4916.25876918
      6891.88570085
      4749.57487979
      3144.09321547
      2031.49679866
      5158.95792266
      4934.32041497
      1127.52825681
      5637.55299487
      1241.80517429
      1001.50451969
      1767.91637006
      4338.36596562
      4053.08236789
      3629.40045746
      582.81704761
      3026.31969926
      2566.01943537
      318.16058560
      1975.35266847
      6251.72766704
      3051.18598501
      -2516.26218340
      -94.32626990
      698.91033699
      2802.19101677
      1859.30969802
      3161.03659436
      360.67732724
      678.42598378
      3934.87385139
      2451.33290368
      -943.96745192
      3110.76502699
      3235.03199417
      -62.58249620
      -754.41380208
      2429.83385274
      -1514.56761741
      1810.58716934
      3385.34454945
      -918.02516138
      1858.05845094
      786.26835959
      -2708.07863626
      978.37033785
      3925.25240588
      -1009.83583556
      3238.86523603
      -223.80263938
      1612.65883321
      -495.88951423
      1402.37039200
      2684.56801713
      6199.28479184
      5635.31017545
      -579.21786442
      -6912.55019995
      -7886.36499036
      5725.50102182
      4284.21830744
      10407.57701122
      8483.54166957
      10299.39458643
      4412.00272596
      10741.88075776
      266.89601796
      4230.47535153
      6752.40551860
      1542.10817036
      760.65264071
      11450.40285302
      3975.64652454
      1809.64828355
      249.33856733
      588.76794356
      174.56402217
      3671.19615138
      1657.87788169
      1128.68518227
      -1699.29744624
      -719.09912742
      3147.45156828
      285.74214565
      1474.99405996
      3340.63224239
      1636.21632361
      13060.26711940
      2722.30276286
      1158.63011919
      1003.38555554
      390.00201130
      -498.47870496
      5443.07506846
      7566.11550910
      639.30523253
      4143.53562173
      3695.33641563
      4611.46397754
      4339.06781385
      3761.50104087
      775.39856993
      329.63795623
      438.24571211
      7768.99424194
      2482.50950715
      1169.25869310
      2379.43680185
      2406.20441457
      1115.78074538
      -357.34794372
      -1493.18385884
      -3397.69378151
      785.39097976
      2810.85874710
      16835.60720538
      1247.04357874
      2337.42217077
      -545.03484150
      6674.56140670
      3276.27516138
      4424.89244081
      6816.58134178
      5982.62687230
      2525.09010344
      15212.12637753
      20401.60220777
      10004.00461575
      15862.74995484
      5013.89728122
      5646.85017386
      6614.32510297
      5930.84376978
      4459.19478223
      4389.11613238
      6028.40320398
      5263.11710874
      2195.48625749
      714.32687143
      1841.58894433
      2481.90640033
      -358.90438963
      802.20645801
      1056.77361640
      961.03113695
      1341.21572467
      1889.23823257
      11766.76495807
      2196.00884619
      3416.80811095
      1621.80239444
      3393.45042476
      5834.64610106
      -1485.88377975
      570.87066251
      5793.94497486
      2648.69916953
      3905.16537746
      3530.21638618
      331.38821791
      1982.45621621
      1970.35940107
      1041.44207731
      1490.54518956
      826.96868441
      -2740.86535405
      -668.30228405
      -1133.06566937
      451.35285316
      -2359.96054518
      1666.25224746
      566.91864381
      3608.88899489
      638.80799363
      2550.69564040
      -1213.62495156
      985.77745737
      3978.78729483
      6074.49036125
      -567.92905869
      3840.49495755
      4541.21717041
      -8706.94215072
      783.92032543
      -2369.09901329
      1788.79864204
      5052.25619684
      6487.51623882
      5789.91421528
      2748.51374554
      -28338.34729544
      17596.38861426
      7325.74739590
      3988.35845347
      10334.85926020
      4031.90585975
      1425.42491064
      5068.16330458
      5157.44701017
      3008.66414703
      7926.97432942
      9180.75882415
      2254.96630739
      678.12601661
      2191.26814761
      2412.26959141
      175.78007989
      3708.80645687
      1364.14367608
      2804.38343473
      3389.88533244
      1519.55062381
      1651.29759226
      893.32606147
      -499.80995128
      6156.77212272
      4716.06458190
      2418.50407358
      811.56064517
      2853.45351836
      -1499.56073903
      3180.36711905
      3331.42700942
      993.43034560
      1709.75565208
      2199.27639374
      3402.00515124
      1415.50056533
      945.32157968
      64.27383718
      1508.76569713
      2388.72475574
      -368.61471006
      841.57662420
      -2419.80790318
      5368.45170886
      -1874.36828450
      1003.37344826
      1761.89911125
      1616.69406301
      640.02011266
      -405.49002260
      369.38601899
      734.50094793
      -2721.52806343
      2403.41380732
      -368.92018741
      519.17629739
      1529.50147515
      -3786.87511717
      -1265.42074374
      2578.92630944
      -4031.71464441
      3400.42857859
      5163.44991144
      2599.15128970
      3877.67941681
      2407.07784698
      13028.69548700
      6184.59979746
      6263.66802775
      2479.02801711
      4827.35228696
      924.66585029
      2845.01512625
      -2460.31596020
      1092.25468809
      -418.19574382
      2905.28588161
      1568.94609846
      3541.58078466
      3672.98020410
      2734.53478233
      4283.94973409
      710.25134504
      99.79327550
      1626.89905438
      1056.58212077
      848.03355549
      1757.65015356
      2250.19420120
      892.51145761
      1909.12938786
      859.02886747
      578.36459294
      2246.98947418
      40.76303000
      -156.47137888
      1628.06841219
      2221.29468026
      1758.66454293
      427.36606796
      1330.34642970
      2026.75856903
      4305.62789074
      -3012.71731667
      -972.57098489
      2613.50942669
      1602.48704577
      2610.71110088
      -423.58927547
      2741.01005733
      -2468.77436612
      1800.13342854
      2808.04056063
      2674.43844671
      617.78790020
      575.00045412
      1561.26261795
      -4822.54322399
      -3592.86302435
      6182.61273940
      1680.71582257
      359.04458169
      -2260.61131648
      1420.36310439
      1648.63039413
      8226.15659846
      5305.56736447
      -870.76756115
      6643.57088288
      -2296.41730828
      1641.70482063
      11048.09868945
      6250.88732077
      12999.75405268
      8336.51283878
      2750.12759709
      4114.18301843
      -171.28352283
      2196.98894258
      3644.22388280
      414.51278924
      2385.14451600
      5163.93111582
      2978.24785462
      722.08725212
      -912.23428374
      3111.72718101
      -107.22722511
      1103.10240308
      3348.80814814
      -8.63335235
      3588.25195826
      3064.41530025
      5146.96519444
      5924.85243095
      3690.67199487
      1743.85566590
      56.10791492
      2577.31372967
      595.93181564
      1539.50660504
      1551.56750822
      2061.51288144
      -845.54232640
      836.32788704
      32.16448107
      465.70734190
      859.95735729
      865.78025196
      1191.56591180
      -697.40049121
      1405.01931429
      1540.15563577
      886.12604682
      476.12088754
      -2451.02073948
      1369.63937506
      59.27249657
      616.35218031
      2022.14265621
      3391.89760174
      2228.28510126
      1218.35982240
      -1171.07560536
      679.42780042
      3450.98059496
      194.23440162
      1548.99583361
      -3722.99719113
      2857.52270935
      4497.31537989
      2693.51661727
      2563.98663887
      -6336.85416858
      -2905.86757848
      -2209.02252231
      -30962.88851667
      -5678.75686574
      9832.72834774
      8363.17358913
      5020.03400206
      -834.03075201
      3771.62619803
      3560.57593775
      472.22820985
      4793.85230302
      -457.55400353
      9554.04560925
      4977.54696399
      5447.18601995
      3363.43038075
      7127.26058990
      5316.89717484
      608.35015893
      -101.47015179
      7502.98175146
      1278.72848288
      1692.48006551
      7356.72117309
      -1157.43370255
      -363.78379811
      4796.80813384
      6296.19236890
      5356.00763882
      4789.50266879
      1047.02682755
      1636.43690421
      3181.08391461
      1327.06898951
      1875.68862601
      3598.01885715
      1307.03867345
      -540.55510154
      717.34015156
      505.89579570
      45.14808146
      -498.48155255
      -627.13671180
      1417.60394998
      3175.89462039
      -50.83198884
      -753.73374306
      2533.98614308
      212.78598395
      -468.34063572
      1668.22028314
      3129.98483816
      -480.12129205
      1601.25001117
      -842.82713458
      509.90554997
      2406.90483251
      8849.88939155
      1492.27104426
      2352.51068123
      -7286.01383037
      7728.57502293
      5649.03122722
      -571.54404974
      187.96693730
      -35.86097688
      -622.74891785
      -19317.15986296
      3439.32525334
      4485.37123488
      10015.43751522
      4089.50717922
      4648.21365642
      3491.99087592
      9700.83689289
      3677.97599999
      5040.46958869
      6053.62507546
      4448.78958512
      7928.97045612
      904.35613533
      2448.27455402
      3030.96902548
      5064.25748455
      4570.54805241
      4620.58952674
      4034.53602028
      4222.63169427
      3916.93876655
      2051.13250570
      1182.26303403
      1755.25308944
      2583.34134067
      2391.91459655
      3673.93367000
      717.75987835
      2010.96923442
      701.76805316
      1293.57071388
      3801.21487653
      7634.67221527
      5427.04428640
      1033.11612270
      879.83882662
      543.84212751
      -6.62490102
      1483.88086292
      1550.84190019
      2120.82460287
      290.03681063
      3083.42382513
      2295.59705942
      3095.62543526
      510.81188388
      2157.86159506
      134.70432375
      1955.48178790
      1143.38041156
      2091.18542392
      460.59545849
      509.15298710
      -530.26865477
      3368.72016069
      1695.33138984
      -8676.67752567
      5584.48594254
      -2245.12655341
      -5827.01656390
      10629.93998047
      7151.56172982
      57.34334342
      56.53900315
      233.95797199
      3211.75720808
      8436.63964425
      6953.98904798
      12096.17286468
      5385.33111048
      2430.87104387
      5454.18267876
      3930.93152812
      3390.81285177
      5875.52334293
      -4652.71959185
      11741.23772082
      1448.74021894
      5759.62108500
      3529.30415088
      4427.97406538
      2253.00781260
      2145.56564246
      2997.54483893
      -6677.68462902
      3852.16334897
      1590.20045121
      1203.13997806
      658.53886653
      2287.83124865
      3854.26230475
      8277.24233848
      3732.99493717
      4852.05007905
      -712.62590715
      9226.62114263
      1246.25308316
      4261.19890835
      1250.62115898
      4705.66528746
      1393.72241436
      917.51560426
      2496.64760146
      2073.70537884
      389.19254678
      1553.62689153
      982.67215600
      1835.78236213
      -1243.39700114
      -1153.49185852
      3298.30538928
      -1036.76359170
      -850.18700288
      7261.30618610
      52.01552716
      998.95610148
      2537.45647633
      -357.25276109
      2078.01891596
      1209.04229362
      1061.01664721
      1025.07199342
      -3951.77216594
      1369.19126307
      4283.81215591
      4775.09121954
      2166.30920929
      5171.03833444
      14502.37815407
      6223.12695022
      -6177.77712419
      6846.98668172
      1351.07896724
      2910.93539022
      3074.54688281
      10873.06743135
      2142.11232785
      4525.69852876
      6552.87301647
      6429.78355376
      3483.18348440
      3722.42167278
      -553.48496738
      2583.27759835
      3691.63961640
      -914.33766315
      -840.27253816
      -10853.87415047
      -2214.16547319
      153.89161025
      -579.87777766
      -3503.23958413
      7264.60858131
      3255.55790771
      4320.02232317
      4106.06924454
      8271.67973258
      4676.77121067
      4657.74141265
      2386.90463751
      4960.72955884
      1225.73183068
      2535.18297578
      2662.58589270
      1549.92095657
      2117.20648994
      451.67537145
      4527.64359952
      2868.50477665
      919.53049638
      999.14435044
      3353.18587732
      1725.53969775
      2395.98788713
      -1811.30556025
      936.94077053
      1155.35489563
      27.33260230
      -1967.99038224
      1384.70475781
      1040.21633528
      -275.02046828
      2060.73103120
      3358.27150833
      2543.95127377
      -1043.35533888
      867.61095215
      946.24498404
      -2343.28912509
      1511.91042349
      10480.81087563
      7128.15565813
      3731.08316833
      1247.78266650
      -334.98662359
      -165.13265279
      995.62439213
      -40161.08078057
      714.57384358
      4409.53080704
      635.07431565
      3551.53969619
      4871.39386827
      3861.25368560
      787.98724630
      3856.58191723
      3722.68615499
      -3171.37056552
      6103.35497008
      7046.48716883
      12680.79358031
      5870.33834683
      2332.21530115
      3183.34307146
      3441.62184029
      1008.47872443
      1815.66617254
      2597.56294373
      1287.70841629
      2932.02166091
      2537.44360028
      4672.67953192
      2084.35704016
      5157.21244283
      -1594.99022549
      1740.95335686
      2499.17385190
      3331.70913939
      2573.17836213
      -687.46024186
      2383.04652502
      -4532.08254902
      -299.94005352
      2220.03267251