<?xml version="1.0"?>
<VTKFile type= "UnstructuredGrid"  version= "0.1"  byte_order= "BigEndian">
<UnstructuredGrid>
<Piece NumberOfPoints="5123" NumberOfCells="5123">
<PointData Scalars="Pressure" Vectors="Velocity">
<DataArray type="Float32" Name="Pressures" format="ascii">
      -335.17621220
      -20289.43251507
      -24174.39135384
      -25493.28008765
      -24261.99582305
      -28560.32273856
      -29272.80775739
      8049.21211837
      6413.19976055
      -23569.16128140
      19685.95070471
      -22140.43487678
      8471.65973381
      3558.70084784
      -20993.64946475
      16491.15374017
      3194.90618680
      -27025.94562458
      3662.80980396
      5586.02175209
      5106.95044372
      1203.60175558
      -243.70051317
      -469.98591316
      -3509.25369760
      4210.51141902
      -181.16273830
      -265.95750342
      156.29817319
      -3496.02216420
      9155.27474172
      -4902.95989321
      -8472.62315152
      -917.81857108
      -614.64985810
      -3903.23373752
      989.24482774
      5002.65602560
      648.10278010
      -573.36340455
      -1971.82700982
      93.62749886
      17.04563433
      -4330.79192393
      -1466.74016025
      -2225.49138648
      1172.49766531
      -526.25576522
      -1093.72148623
      145.12449440
      -161.01370338
      -462.98561038
      839.84760383
      11.80243212
      -870.90564597
      -1513.84834652
      -892.62436672
      -2350.17927656
      59.99333209
      -471.19897343
      1109.02236783
      -708.73631127
      154.74527542
      1555.87187226
      877.51708940
      -73.04140535
      9469.90152151
      11220.93946226
      3754.80161903
      3703.39354164
      3041.82199938
      1725.22565177
      3778.67259507
      17849.12322351
      8420.78317668
      2708.21717714
      2968.53291143
      5403.80431483
      2935.54791415
      5217.40316650
      1918.80807612
      2551.48680568
      2232.42438308
      3006.55100742
      5114.00652648
      3357.21601864
      3700.66360369
      -331.08830081
      2620.16665779
      2295.62352573
      -293.24035449
      17.67483535
      4085.37527897
      2975.97747286
      4568.08450344
      -78.85334538
      283.88434212
      2730.70787103
      -585.83606863
      988.45766245
      -261.56027799
      925.81868156
      3275.21937742
      -90.63519705
      -1721.17377218
      2201.52085822
      -3469.47420135
      5600.49658075
      1397.95850441
      165.21580503
      1912.08060581
      141.33740744
      -5775.24450175
      9439.46668573
      -7717.50785913
      1498.15451212
      1089.33466326
      -1131.70983505
      -1172.95643999
      -1653.59132301
      822.05231405
      791.62442956
      3022.82514743
      3398.06123604
      799.61217993
      486.30133475
      -1478.89060818
      -132.95715975
      556.59716876
      -631.68588214
      -85.49821296
      -625.82431345
      7000.09479590
      4792.48737521
      1213.66272650
      1202.16538133
      1745.09149471
      6765.11354011
      9593.46253508
      6546.04408306
      5441.06782424
      3869.33650525
      12435.99034535
      4749.24216836
      4477.77850343
      5583.60213046
      7968.53513006
      7285.60060691
      5189.17093464
      7946.97247806
      5324.33030735
      5812.23196949
      2768.42700882
      1653.43555861
      2944.46851548
      1282.95390038
      6336.85156761
      6051.93079447
      10.46365177
      1862.77441115
      8774.28278182
      1227.49289041
      2024.77948815
      4984.25312513
      4065.49216854
      2354.74373766
      5044.40087366
      3356.73793053
      7298.72354835
      -5499.95578457
      292.39807571
      3787.35864741
      549.76806740
      530.14383190
      2639.10464055
      3516.19102328
      -99.71449000
      545.89636862
      4528.20509674
      -697.01100794
      -765.04642236
      3506.37206652
      -5738.24409806
      -56.05902498
      1264.86778140
      217.85334409
      5239.47455314
      -2016.32311971
      2540.85624835
      1088.98094282
      -308.61615893
      2237.07493306
      -422.21183565
      1463.49445297
      530.28721143
      -455.79773031
      -216.41593135
      248.44973482
      -18716.99888393
      3085.60740649
      2906.90514111
      5716.27732112
      2235.58291411
      4095.77246809
      6342.58287957
      3810.38237867
      1684.52355455
      1123.37985951
      3812.07481444
      5154.59382193
      8480.69893557
      5954.85568019
      8839.30896302
      7226.65307414
      3806.28063975
      3578.05248607
      5673.90007179
      9867.68617867
      378.16730379
      4654.56928037
      2626.03658770
      2521.27708938
      2568.25713481
      3044.97310432
      6763.94209620
      4539.34719756
      3584.56269460
      -2211.00533703
      4359.49586994
      3000.06614772
      1122.42199694
      2978.89209240
      8302.40303066
      -1698.48342962
      210.55384521
      -411.59478857
      829.89642463
      -450.77191673
      3231.43239671
      1241.96286478
      2333.25154585
      -1838.68495704
      6138.45669849
      1799.81409861
      2865.66644796
      2927.99428612
      -2106.33143014
      1872.37207445
      -91.04893631
      3372.24624755
      -2197.66946086
      2389.86381608
      5515.26654072
      5119.29819752
      2424.23954762
      1482.38555050
      1240.01329010
      2881.63740450
      4070.59808113
      1825.54843255
      3677.20613685
      -136.68134874
      437.76820103
      183.14156480
      -27399.67254656
      16130.71370404
      11082.02713164
      9813.55892764
      7704.26491881
      6798.03250820
      5491.40573181
      2996.68322951
      6539.91414461
      3435.16687571
      1267.95137958
      2364.96181348
      5996.21026159
      5025.15907958
      9188.92567802
      5207.70969133
      2290.09886651
      5936.85044354
      6834.25235750
      9847.73276951
      2771.47309150
      4083.60672772
      10588.32247879
      3299.93919753
      3547.19606832
      2011.71344003
      2855.28297725
      2601.71992107
      1837.92845629
      6015.32033061
      4914.97973392
      3617.99200856
      2675.09551039
      -2166.35434319
      2764.49831381
      5205.97091016
      8975.02821754
      4057.69592848
      5657.84729907
      770.95897416
      1775.74219836
      4320.24290639
      1726.02745557
      3884.71142416
      871.15532721
      3442.94065073
      2300.34354055
      4250.96731881
      133.54621909
      -1750.64635840
      5602.23794650
      5696.39192265
      907.03584466
      3764.52221157
      3371.97404169
      3020.86272960
      640.99095011
      4827.05723912
      4480.55800065
      2514.13280701
      497.83634032
      436.84588177
      -228.50645522
      1370.26552701
      -778.92542275
      140.99337561
      -20980.90566408
      3735.10033575
      6622.95378726
      7741.11992423
      10057.87968515
      9313.15191654
      2668.47205973
      26641.49645653
      4253.94915393
      2327.22370252
      7757.33868871
      3038.82481360
      -819.17259808
      10790.27263797
      5403.73867266
      7540.69935269
      5180.76815906
      12349.15656667
      5486.06470863
      4366.28779293
      4085.94736837
      1796.75654102
      2743.81488812
      754.62538672
      5644.74542569
      12026.06807350
      8513.95805461
      346.06618367
      4532.81262534
      -249.15104029
      -713.82093091
      4393.45237653
      10255.20475920
      2242.32349073
      2774.62349884
      3033.76067534
      3331.68782433
      2145.53993022
      6042.07116448
      2266.10802389
      3415.54170453
      2549.06631066
      978.99556700
      1200.31750866
      1350.74722984
      4051.43852513
      2655.97311942
      2153.82912330
      3634.99355239
      -3540.34386983
      5225.98371857
      2047.62016560
      5347.23004926
      -157.69505723
      4354.35358461
      -2922.64936591
      2368.72972252
      2290.42805724
      1659.03629844
      3993.23732092
      346.12213005
      304.21428971
      2303.18229652
      2265.05835564
      -767.11654310
      -742.75098177
      1337.91787597
      8494.39911321
      14382.31632194
      18510.02500069
      3875.81614398
      4365.81309410
      6730.84694774
      5957.52130382
      7304.43401385
      10554.92407062
      8771.90063633
      8769.57834219
      4352.88153812
      4572.61431809
      6545.53318300
      3987.45593791
      3864.81227144
      4060.72039727
      5340.19301344
      7415.31239285
      5267.73597837
      1794.28427142
      1907.56538066
      13808.71625093
      6837.37277480
      1266.26254851
      2435.84002165
      -810.75299059
      4807.76719876
      6812.62165519
      4796.83348614
      8285.66193984
      3347.55035036
      3715.17184147
      -1926.10099062
      1468.08015270
      4796.97872336
      5316.07250484
      9115.17905925
      2385.48401212
      713.71517932
      1590.08880285
      4340.56173315
      9876.99948712
      3118.43244661
      -1600.39057180
      2605.98713784
      2560.49110805
      2847.03169940
      1064.63069858
      5797.39897594
      -2493.17078593
      30.04979316
      2908.53508595
      2766.12976431
      324.70782102
      3636.65524169
      1585.20216685
      441.98042509
      589.17028680
      1693.20922923
      3275.91706051
      -1483.88195830
      3130.75019444
      -1037.64376824
      2993.56901346
      16683.77921629
      5597.54270565
      6237.47110559
      11441.25632917
      8379.08631554
      18801.71398916
      6040.79085707
      4125.78725895
      6575.65230999
      9295.71809784
      12250.35829343
      18069.08420577
      2918.47800437
      2480.19950023
      2854.91220984
      -4881.46898240
      8213.17073200
      2193.34961263
      13842.09292550
      401.09339939
      2798.53832812
      12681.53411525
      5422.73259687
      2699.23547899
      8259.14759543
      3705.30927413
      3963.97440530
      -2191.76079713
      1034.56145221
      3046.85251507
      8506.75951709
      3237.57070939
      6325.49148491
      6063.51623431
      1003.78530793
      4461.61048527
      3543.26772886
      4909.86283454
      7674.96439316
      5078.08736881
      716.54992930
      443.54376348
      6575.10393609
      6469.34974707
      1146.16242506
      2977.86199727
      4153.44087741
      3539.29331278
      1556.18925872
      965.70829103
      2849.61498308
      1703.00181483
      4751.56899845
      4519.44929580
      438.21119016
      3088.09409070
      893.56731254
      -1466.43400183
      -190.83090408
      3847.66549499
      233.32674904
      1820.24566699
      1064.40709670
      1720.42929731
      -748.09137376
      2197.67868828
      -21336.21804100
      9256.00137173
      12819.56134760
      11730.00702389
      2513.51595144
      14000.42645949
      6730.90477829
      617.72386107
      9797.52048537
      15966.20272812
      13773.61093175
      4039.00390071
      9394.58383675
      3436.95374178
      -4529.47650978
      5916.28464326
      4806.60879928
      13134.07296837
      5546.73900806
      9202.49674918
      -1253.58949981
      3557.65689460
      6501.99822946
      10631.28311623
      2811.97570962
      4893.62126746
      8736.06294677
      5330.35851421
      2462.57348170
      9522.10710348
      6355.23359677
      1707.86256048
      8243.80598535
      6963.58098871
      4582.95178245
      7114.00125813
      1691.17939168
      89.01607101
      5798.71505966
      7066.49239245
      3254.95430056
      2351.24194265
      3267.40406162
      6565.44716950
      2718.55794126
      4862.13715253
      3508.14361290
      6468.16841922
      2909.21395918
      4919.50703712
      1289.34063958
      -57.02953588
      3460.62567074
      3258.83761388
      630.70986205
      3470.56156301
      2003.69917143
      1723.12840393
      3797.67572299
      1747.66602117
      1796.39051066
      2091.63328370
      3116.63319597
      2380.40952605
      -1398.70778075
      676.79475502
      19170.91095255
      21147.75522360
      17573.99222873
      7168.00062819
      1129.18872833
      3144.13624523
      9471.29737760
      3206.81651441
      2703.21805744
      7036.15329900
      13645.27267607
      4789.37850537
      7135.68489641
      10023.66597651
      7310.62928925
      4656.00956866
      3969.51180671
      4279.52797434
      -194.40903652
      3393.67386699
      4263.59436301
      2432.46800610
      6221.22261614
      6594.41705418
      3930.98773507
      5271.63736629
      6247.56577400
      4346.18833698
      2522.16510052
      1629.75099188
      2296.39576404
      4135.27313458
      5780.66995765
      4452.73081535
      11967.54727236
      5105.55207377
      -896.31673595
      4328.05699052
      7920.00394376
      2573.17271351
      2196.57377533
      3464.04978168
      2483.54588499
      4672.82167019
      242.10126371
      5007.20607577
      3906.23524454
      5660.35802082
      1789.67547321
      -510.92078736
      3342.19387096
      4295.95890524
      1126.04837707
      481.19896207
      6496.12048165
      -1655.81738740
      1773.37033552
      5440.63064708
      3467.07284218
      -1641.34851535
      1965.21968465
      1002.53755963
      -1573.23482233
      1426.73036565
      1064.07299920
      -867.96238813
      -18378.22992136
      -3054.99390115
      7006.14453602
      4377.07253793
      6577.85903002
      22597.50970643
      5268.84747056
      5621.54042215
      5312.90026467
      2771.39473158
      3564.16456135
      6436.67198577
      4619.93942944
      6425.13865674
      4429.49034178
      4773.80750282
      6958.09055799
      5692.27434233
      510.53714647
      8489.18474455
      4029.05493433
      5888.94418344
      1746.51434557
      7278.44373801
      460.69021067
      5464.29711732
      10057.88692664
      5083.51689741
      3324.49179403
      1055.87618757
      -1228.32140733
      1756.19132138
      3657.42937689
      2772.17583054
      4745.21421559
      4597.42914590
      4550.01106909
      3.61058035
      3955.73578959
      3251.89106419
      4708.64130525
      1346.96745157
      714.27251549
      -2307.90533999
      1885.24382704
      3883.44068221
      959.55648200
      3299.99567501
      3401.32527200
      1014.82962467
      2848.46612456
      772.22856963
      665.38742483
      1860.84608713
      3915.20723282
      4368.88233245
      1393.69993945
      -1019.40147912
      3751.15516727
      3593.61103914
      2719.76984572
      557.70849881
      2968.43136748
      -1994.64661855
      -82.29644266
      1867.29382150
      10244.81695409
      9372.55284793
      2066.61317657
      6821.81346284
      9638.85027688
      3924.29735665
      9152.69323594
      9962.20067802
      3095.55194203
      7296.13943196
      7130.10916814
      3533.08864260
      4262.78856150
      1219.64862860
      3041.40749280
      5629.15168658
      6553.23747826
      6503.32017128
      7090.71250116
      7352.07111910
      3420.42742361
      951.77013385
      4393.45928165
      6553.65439704
      4811.88151388
      3075.47046021
      3800.05099823
      3214.98962365
      3292.67751291
      -1670.97005337
      528.34828141
      4515.51686245
      2689.94262423
      2647.40845726
      1669.40361777
      6904.38663445
      2367.71997852
      3627.58580687
      5833.07196546
      6350.72461058
      4945.10681019
      3024.85209059
      3544.00206606
      508.13777081
      2161.57910097
      7531.92775078
      1901.46154673
      3730.24050510
      472.29163436
      5104.25676052
      2610.92795378
      806.11709103
      520.55170197
      4222.59303022
      557.34042022
      3301.52917299
      2626.11921663
      2108.96663911
      2878.45258439
      1837.39555823
      2942.13442327
      3546.92476820
      2512.52964177
      -2414.64442438
      -982.92996696
      -46.41755723
      8463.56598324
      9803.38442285
      9017.00063224
      1397.11609579
      7304.40864705
      2907.83815469
      7228.88319508
      2403.84636319
      1273.50488771
      4035.06942572
      5236.61267416
      5289.21107402
      484.71366410
      3115.34343599
      2219.45472218
      -2130.11419612
      3671.52713194
      1838.75782806
      2607.23663820
      7662.17119892
      3163.62152352
      2802.23992345
      4226.79534068
      4735.89384904
      7264.21246914
      2810.99946898
      5719.02044028
      1377.45087989
      4375.46788656
      -7883.60211685
      2559.80802433
      3992.58882643
      7206.70434990
      5619.85471243
      3824.25416260
      7545.62904126
      3715.34417300
      4948.73505948
      3998.94647484
      1998.39814113
      5026.97584160
      4747.43948392
      4486.79130504
      -782.14093583
      2842.56907068
      4208.70533740
      2334.70187616
      2381.65227827
      1047.83045032
      3523.22173248
      4840.39863722
      1924.62741581
      2496.63115273
      5067.15178111
      3474.97714497
      2491.51208740
      1364.17048685
      3497.04210102
      951.67631578
      1192.80541821
      3698.16152905
      1964.03031506
      1357.35067916
      -306.22990292
      876.30051047
      765.89072705
      1101.53212520
      6494.77557676
      4336.52301799
      6036.00941847
      7023.94957005
      3626.61347529
      6982.42482903
      18457.25752647
      8738.61730037
      -5027.90013774
      7482.97837869
      1244.75511338
      4587.35349636
      12694.32803476
      3728.11143541
      1713.81168946
      2787.67165567
      2063.38918031
      -3516.57881265
      6233.97071876
      -1804.59061172
      -1307.37083571
      12535.12014041
      10072.99791151
      1834.95011212
      441.26712019
      2872.36839119
      5231.18477928
      4924.29015617
      4041.71365250
      4593.38341251
      -170.18515261
      2360.46912116
      4674.89589992
      4113.29059759
      6889.82243258
      6545.00896626
      4405.02572152
      2727.82762922
      3686.83528671
      3056.75576110
      4604.37728277
      3855.99526710
      4521.28219696
      2643.91730259
      4134.83407890
      3917.92824284
      7287.69964643
      1338.03797930
      3897.77359629
      2633.35759215
      3484.52605557
      1335.60366330
      2373.12468880
      3807.99446848
      4310.22765680
      2544.63849528
      1221.10574423
      3692.14518080
      529.15363231
      2766.25754587
      1432.13451598
      606.79561685
      447.81263726
      329.71399843
      1597.59264166
      3984.40873695
      11989.84066857
      14368.20280606
      7497.16073847
      6629.97111915
      401.25708359
      4839.90168253
      12038.43030415
      7311.66092135
      6057.00239773
      4111.09080082
      6897.85261688
      5211.46140099
      -2359.48898986
      6944.10933345
      2327.57890430
      2212.91815261
      5205.33411595
      353.48574511
      3185.71946242
      -1337.81982370
      -1747.10949545
      7640.97195618
      -1756.10876485
      4717.55398301
      8587.86235156
      7617.02689740
      4822.17143834
      -2268.37012867
      2513.20495163
      7169.16425010
      4319.91541586
      3498.85950501
      2809.80060408
      2858.34135036
      828.40520274
      3340.85566140
      200.55349672
      5893.99817239
      4184.30153889
      2740.57643074
      4194.25003921
      4663.03033633
      3589.22682140
      4481.64933858
      3522.71743519
      3564.72664049
      5051.20737502
      2407.58735948
      2739.45158584
      5619.43003355
      4376.70345989
      1045.46186747
      3535.82243316
      2436.09337623
      1732.41478430
      610.10485339
      1400.93656525
      3707.70701863
      903.53169395
      2633.97528697
      213.81112153
      3490.30185530
      -2099.72136785
      845.43455861
      1204.36816706
      -28338.34729544
      13309.17785656
      5928.67500015
      14586.80477126
      310.03648761
      -1453.80984467
      13777.68332615
      1931.14304905
      2894.92507525
      -388.95699024
      8026.51886854
      5989.19377457
      2873.91953177
      2177.89663914
      3008.11045992
      1737.94953998
      -677.09869996
      3954.71397793
      2468.95192421
      -586.97532134
      2748.59677928
      12852.88522026
      2414.64807069
      2504.76293841
      1842.14102395
      3345.02535516
      3174.27236870
      6499.40252432
      1867.88850938
      5423.89793106
      4671.61783676
      -4182.10626487
      -329.47009269
      595.58165240
      4407.05032516
      2332.25474795
      945.50504703
      1657.46965279
      5038.97234058
      945.98594825
      4428.77942345
      2246.74071547
      4497.13479606
      -727.47245042
      -2077.87678943
      2583.87136501
      3076.17854258
      4475.17001627
      6431.27225281
      458.95374089
      -478.17004544
      2435.82864403
      2850.89501324
      698.53130727
      2584.14687709
      747.42773957
      -345.86294597
      1926.19208649
      3518.78062623
      -1352.06148721
      138.91766467
      3045.25270002
      3210.51092918
      -1611.35408562
      -39.31251951
      -123.73217586
      1458.26454514
      16569.78990434
      2534.66923623
      5909.94205849
      10852.48656318
      -359.22914606
      6008.37639257
      1146.27118307
      147.33013027
      7587.54905183
      3152.33264597
      3950.60950198
      4812.06449200
      5944.26437906
      549.88661090
      1758.34837055
      4177.04132107
      7201.02909061
      5447.81256250
      -2341.41452652
      -805.49699743
      -21.60718730
      7453.07648603
      2246.48004633
      5506.42901610
      841.82073776
      8361.12336944
      7981.90175605
      6828.97840126
      5204.82549934
      927.01351490
      4330.23982611
      3836.18323267
      607.01890420
      1931.30988872
      46.56683438
      2726.40178103
      2477.85134853
      5146.95042541
      5773.51269975
      1067.37194396
      4753.88665072
      2435.40723326
      2001.73499067
      759.69156981
      -250.81723870
      -384.96945525
      2008.61132254
      3549.58036013
      5537.99092016
      1968.65340254
      4769.81468832
      5857.67408626
      -282.03213522
      -842.35422441
      3038.46014712
      3108.15613890
      1872.30455241
      -1012.33695327
      -310.88494083
      403.07583227
      2869.07227097
      -179.27157707
      -97.10496083
      -259.77910259
      416.46723066
      4096.15939026
      8220.58831701
      9031.15455055
      7027.49121420
      2194.42597391
      -1934.42111966
      3630.96730782
      -1618.45577683
      910.80126147
      3472.81693839
      -8335.95602887
      610.88315449
      -1483.19368459
      6660.29221558
      13522.25597558
      -2321.52233386
      795.16600443
      -13728.18821494
      2763.98622782
      4959.33719956
      1122.48617829
      1940.64733217
      4661.53851155
      9569.52470025
      2086.22742679
      1092.84927827
      2289.86766347
      3022.72981540
      3435.68251395
      4123.00578793
      837.63384637
      -644.96929163
      1922.11755769
      -5112.15908152
      5039.92581217
      4321.54776304
      2033.66940103
      542.73518549
      3244.76917001
      5326.98563892
      2236.67762190
      -212.06933265
      3993.40412421
      5192.08344383
      602.88310832
      -183.74313153
      -1823.64248618
      1967.22058566
      2420.21343196
      2583.88432005
      886.02457996
      1347.77264290
      5122.10294322
      274.62975590
      -606.29154421
      -670.79270142
      3449.90830862
      1510.66271272
      1213.92308940
      84.21470083
      480.06842301
      2078.37335171
      -1282.67422909
      -2163.94555313
      -951.69036468
      782.57531459
      -30962.88851667
      13915.99214043
      13233.24450421
      1634.26862719
      4032.55632254
      1587.14335873
      3332.99720402
      1807.66204512
      8098.62845247
      2969.19363607
      -1720.35239745
      -4312.25329551
      8456.60372013
      2934.63571886
      4408.05594244
      16515.61983850
      6373.68459243
      967.75426183
      7513.92910712
      2794.05923225
      -1738.21364908
      -420.65173036
      -50.12842897
      -2097.36281401
      2020.49913882
      5632.01566931
      4588.92919304
      3241.44043997
      6010.51765019
      2389.69520832
      -2858.24680807
      -3042.48149963
      2865.05474844
      -5460.89230949
      -3803.44540073
      2251.68021727
      3384.90604832
      2344.81256707
      694.32090735
      3775.41266798
      2414.99415489
      1399.71884869
      2502.09035436
      4409.88850616
      -736.41044975
      -2495.83355434
      -2959.48514752
      378.35341492
      585.27409914
      3676.96630709
      3551.55810651
      3690.16335201
      192.37728411
      -1787.56993012
      -2599.05912183
      577.33461971
      4142.85314193
      4035.15912636
      1002.50399356
      768.83570894
      1027.31533872
      4285.28635073
      -1929.00337953
      -373.81740103
      -1182.29949372
      692.53072551
      -19317.15986296
      12817.00914144
      7409.38739577
      22028.09469098
      934.62091867
      3079.12853136
      177.76935147
      2264.56372929
      8980.49510194
      -3366.96512115
      2485.74724988
      -2993.49112223
      1906.92554198
      8633.09589686
      1026.21073051
      5292.25227024
      849.56711561
      4670.31066274
      398.22498623
      2658.83417772
      3944.58841332
      3417.75575553
      6402.63536005
      -4383.94382142
      1342.19027378
      9094.53184058
      156.07802541
      5829.55642463
      2560.28387734
      2901.56016584
      1487.47920679
      5291.63093277
      1018.58496051
      -2626.84694889
      -2000.11129464
      1227.61790716
      -164.90256377
      -63.46443848
      3841.78064189
      2776.63439383
      4602.36577635
      1405.17346329
      3302.93427864
      1328.50715239
      1227.98190701
      534.22150976
      -3.34672555
      -2392.82506966
      -2038.18751243
      1004.60537324
      3157.78928849
      3296.87336466
      1889.95749481
      3672.97576400
      3171.89545328
      3496.76929164
      2948.51777383
      4233.87204143
      545.08915806
      -1589.00108153
      1470.12392501
      4507.36688576
      -1755.31851891
      559.48547035
      -475.83604977
      829.17127034
      5301.76735641
      -6560.68805709
      5887.91415610
      1826.30192229
      7721.74197549
      -627.85050984
      3971.64574690
      908.51022946
      -1260.25778547
      -206.37400116
      2327.62549991
      4284.77973910
      -5.69235384
      1880.19205999
      140.49424831
      2225.30603484
      3227.43871511
      10363.46550226
      6914.33667421
      310.36493113
      7293.86227764
      -4391.75177863
      1766.98378343
      106.95809301
      6257.78681501
      -5074.44020328
      66.06671594
      3922.27531345
      4936.57975999
      949.83078419
      5026.52474598
      4294.96666995
      2803.00653418
      2310.10283087
      -1820.58431619
      -786.49191844
      -4122.51535501
      7757.43182963
      5505.00686467
      -512.01833175
      3355.79238022
      2622.97945674
      -1612.67330200
      1862.21137727
      2004.91419012
      982.60735274
      764.18067408
      292.89739178
      122.88071914
      1145.86925727
      3767.39064266
      1706.67623342
      1944.17704081
      2330.65153271
      -454.34023384
      857.95510566
      -898.57494411
      -254.32774678
      -987.68940170
      -531.10629970
      -1240.81015498
      2283.24355657
      679.86165232
      -884.35445477
      -2019.35519728
      -2466.72522503
      8812.59695178
      5481.95513744
      -2801.19390199
      5918.55777720
      5838.25552461
      8282.29528034
      3236.04460987
      -2727.93634283
      9564.67815308
      4722.93678161
      5656.23732688
      319.61059805
      3132.01249564
      14513.97384358
      -3320.84580929
      -3877.42089866
      16782.67562030
      4831.72193830
      1855.93125715
      1725.78206392
      1322.14845936
      5740.85381992
      5870.46860194
      -2232.97642457
      9154.63039247
      4499.06797746
      5023.72206365
      -1996.98651659
      4034.54264653
      2152.83787932
      398.23319216
      421.99216536
      2765.54829761
      797.85708770
      1702.54615703
      1052.57144854
      1629.70510804
      1561.79143675
      2100.37207230
      -336.40670044
      3122.74711691
      -3060.39037833
      1580.25182667
      3491.25398092
      2124.85208117
      390.11350679
      543.46714010
      669.48173604
      1406.64986517
      841.25831095
      818.68387280
      1730.07217255
      2039.38373795
      578.66497178
      2479.20963191
      498.71027859
      2086.71587169
      697.37616746
      874.37288638
      1523.25620030
      2200.45786309
      1680.48718125
      -2195.16912183
      -906.79272980
      -242.49517793
      369.20610738
      -40161.08078057
      16189.03001467
      2595.50892978
      9161.67216927
      5513.06198697
      3009.62170303
      9591.98223375
      1535.37508431
      5682.61935004
      -4388.36388277
      2547.50900299
      -8932.89573522
      5261.65190183
      25252.43554587
      2008.47551298
      2254.90689268
      -1766.21789996
      6761.01278140
      6971.44697531
      2538.68863365
      2530.92207857
      16078.48952997
      1696.33817034
      3036.71386988
      -3626.66026542
      108.79789557
      1272.45687027
      5563.62826697
      708.80330865
      6795.54921585
      5835.22099631
      4086.24961469