<?xml version="1.0"?>
<VTKFile type= "UnstructuredGrid"  version= "0.1"  byte_order= "BigEndian">
<UnstructuredGrid>
<Piece NumberOfPoints="5123" NumberOfCells="5123">
<PointData Scalars="Pressure" Vectors="Velocity">
<DataArray type="Float32" Name="Pressures" format="ascii">
      854.01628550
      -22212.04798996
      -26506.72971003
      -25493.28008765
      -24261.99582305
      -28560.32273856
      -29272.80775739
      7731.86778969
      4386.01286005
      -23569.16128140
      5964.97193770
      -22140.43487678
      7002.57446385
      3124.93459276
      -20993.64946475
      4748.85590150
      2941.84244737
      -27025.94562458
      1250.74797493
      -309.00743499
      335.09568194
      1222.81389847
      -3247.21584216
      -380.97566308
      -1231.94436928
      23.61860830
      -2661.66166913
      2868.65312489
      1660.12497187
      551.91430003
      1688.52746859
      -173.69257185
      -1115.55194648
      -103.20234955
      537.52645673
      427.19991097
      -1892.77211372
      1473.72395476
      460.32808365
      794.09449711
      677.56333361
      599.35181867
      -501.93227934
      1908.08060696
      -1154.17977330
      1231.08048923
      150.00037061
      992.29101267
      179.49461236
      -659.42366026
      -172.89280382
      587.93619855
      419.65132108
      -267.27452792
      -97.34608493
      241.29536508
      -619.29256446
      200.34032835
      -70.09843402
      421.25884922
      453.38140518
      634.83524030
      622.87054910
      300.76965652
      623.13844400
      1526.61498477
      15325.53589604
      2686.08049603
      500.01548816
      3175.97097094
      130.11660980
      1105.96161952
      3250.67141871
      9165.94654454
      10821.74022590
      1903.40039652
      3613.00164825
      2475.81075016
      1819.11929397
      950.99373679
      2920.14839550
      1330.65336245
      352.81564002
      -3.98054088
      146.26050081
      704.52858940
      -148.75472444
      2958.35592008
      140.27258426
      -620.92363952
      2428.35239236
      204.22869399
      2446.89463009
      2074.12121342
      153.05190584
      1922.32781258
      769.93145373
      545.28457171
      -618.66013302
      -93.59907321
      2198.30761612
      1459.73309559
      1261.34503138
      2580.76218909
      2531.85727165
      488.59581661
      163.73752892
      495.03301080
      -193.68277066
      1910.24813048
      -3888.85726437
      3870.79668124
      -1812.36069446
      -269.22354965
      2222.96996363
      1041.08047163
      -633.46891374
      -2712.84764202
      3667.24145510
      -2147.51293926
      2840.34102047
      -746.49880839
      1346.56517961
      -648.92377026
      1131.07926810
      -898.85131768
      -32.08384834
      -96.16154408
      11.59826808
      899.40887482
      566.76142908
      850.95560731
      -24148.52814249
      2241.73942099
      -84.50488636
      516.64679251
      833.20478872
      2856.30450872
      12601.22866178
      5264.68955490
      3532.86172995
      4.43838572
      12822.51597954
      1613.95822572
      -1411.37167832
      -2725.46105331
      5616.79417127
      6578.87251152
      4987.69763851
      2757.68049127
      7809.76469842
      2886.47619322
      3368.02810006
      2793.93039523
      5479.08012131
      1190.37486681
      3683.56281756
      33.45023322
      3022.41982709
      -977.24875091
      5240.22068492
      3084.74438808
      2325.40599481
      -2550.33584800
      7672.02601219
      7116.00688143
      5712.57631127
      3650.07424104
      1864.47894354
      547.38928133
      1992.98338949
      1404.75319584
      3177.18850597
      2606.14593749
      2878.45698730
      3731.07132798
      3105.45318773
      5427.78682382
      -1900.62587375
      289.18385949
      -1140.20402460
      2117.70729994
      -1333.76844163
      999.39033158
      582.88013479
      61.10056406
      -3768.61194463
      1275.71945643
      1492.75946244
      512.92876130
      1482.61678828
      1333.59766844
      -668.61701106
      -864.70301790
      -746.17114186
      -1688.85485243
      739.00293421
      367.16527280
      -18716.99888393
      1850.31143043
      1724.93730792
      8462.69622882
      2483.64456562
      6174.36381284
      1821.51023117
      2965.65060879
      2285.80096576
      2852.23949168
      3599.35555407
      4001.77951681
      7855.02006606
      9315.51344109
      8936.37083242
      6249.54298986
      761.87927578
      6514.85919881
      9441.15545621
      4848.60262548
      1181.30867116
      3475.02845667
      5900.20572004
      732.64365703
      3933.84961932
      3766.03383470
      2614.19327370
      3018.69917330
      2974.89388685
      3585.01741566
      5929.70330985
      5233.94463705
      2199.95664323
      1496.47144026
      8026.44484465
      3816.79474449
      2653.52373403
      2660.29028159
      2921.30225224
      -463.08008198
      2496.18515406
      -2465.00971713
      1420.20675052
      1294.22224582
      -1185.70228862
      660.42934767
      -1045.91042549
      1352.86704930
      -806.63710661
      -388.63270653
      1050.01288085
      -1085.98367043
      -1384.07614045
      3548.32767458
      2623.16675967
      3126.70609545
      851.07701297
      883.23640215
      573.48289506
      1974.24659335
      1771.40818183
      728.94080872
      3930.26501469
      -1792.99821554
      -1211.74328526
      1360.94416200
      -27399.67254656
      7259.31756807
      10864.79830007
      11768.33904886
      4898.15113508
      13604.82633580
      2546.74871351
      3194.38758833
      4264.64696888
      1775.96317528
      134.04426378
      1256.20782632
      3991.13219540
      5769.44548386
      7002.97325834
      1490.55231495
      -1730.95093158
      2124.95214977
      4458.72332476
      7737.03277961
      772.53310962
      2042.03008368
      7835.86597818
      2019.80449483
      4755.72194713
      6084.19200892
      3624.43731768
      4625.52620640
      4160.08784009
      4260.84366595
      3111.96200752
      6399.81654031
      2810.69892403
      4195.05322762
      1576.93490890
      1822.13474874
      1362.10290479
      1717.87493517
      5302.94415266
      -112.15743169
      37.13125590
      6848.84152380
      -2711.31130675
      1425.40577764
      1014.39688519
      1760.37992218
      2390.28747840
      3383.21843325
      -1457.85839861
      2325.87752663
      -1298.91285659
      -950.81436851
      1527.12779965
      512.64574951
      1035.86054563
      2096.34302423
      541.53229640
      486.53400880
      -1909.26599908
      -1940.61278464
      -1807.52144598
      1261.25703441
      2269.09241427
      -3104.86266991
      -331.10969901
      687.42373423
      -20980.90566408
      9076.63795633
      10916.44196423
      9571.94967261
      4790.01319145
      10347.37429851
      6421.26373841
      13503.26493845
      5261.58044883
      7491.92748334
      2796.58702792
      2859.82459519
      2536.89388964
      2285.97083993
      2993.54542060
      2668.47641014
      4763.89151096
      8316.51437974
      4868.78314531
      4173.67633095
      2101.49562942
      6178.34705702
      4236.72315176
      1304.24393756
      2602.58022104
      5558.91501347
      5787.09336288
      620.46182818
      1593.33447055
      2521.84561581
      5512.84652258
      1871.64303845
      7759.43697371
      1806.97782029
      7225.08428351
      3336.60269444
      1902.97204142
      2165.77797294
      3974.88009338
      1841.40025597
      2596.12903360
      3819.88773431
      5609.89950223
      -2808.26249272
      2054.59927197
      237.19426945
      1312.60645233
      2006.53396073
      -2866.67679473
      259.01385743
      -252.16036435
      3858.96248331
      3655.55085369
      -5586.31817354
      866.75077110
      -349.47332085
      3857.33716201
      714.62115142
      1559.67957935
      2437.27996452
      -1682.50715697
      -1790.07639617
      2623.50019874
      -36.96976779
      -961.82747891
      411.05232139
      9529.91217753
      5643.42540165
      2602.83161431
      2963.08746858
      9539.06913473
      4752.25265685
      11099.14005549
      5289.39028152
      5864.53093211
      5275.02624718
      3364.05068701
      2480.69534401
      2509.37646496
      1672.93435547
      3158.12150367
      1732.86350491
      2917.16182495
      3200.98953682
      4342.35517572
      5195.77241198
      3443.34402634
      4450.65008499
      2397.89312218
      7944.84630521
      7292.78045157
      4085.06250813
      4257.75450613
      7603.91936118
      273.89999816
      2204.38035322
      2341.54879348
      4228.22477309
      4911.43155682
      4749.14239621
      1425.45102806
      1301.28509398
      2869.65492409
      3921.10089428
      7122.56440232
      -469.24669525
      5792.76278125
      5150.97920316
      2172.92315628
      2770.91237143
      2907.77469561
      478.89618131
      1392.24526941
      2189.31790905
      1223.75319721
      4859.95635642
      3611.34369845
      -810.56977629
      2304.06225071
      -326.98173014
      2758.80632721
      1711.87466718
      1718.67961991
      1773.90827677
      4069.15208075
      2083.08112224
      887.60396211
      -385.63156794
      2685.33925052
      -43.82538850
      469.83062885
      652.04997076
      12501.83498621
      3731.72567852
      2975.88421926
      15279.38839397
      7676.68027899
      13848.77508426
      8914.20548747
      7075.67796225
      8049.61306429
      3232.90067820
      2265.32420486
      4433.86440956
      2497.96688101
      653.40378307
      -1899.69866932
      6709.49457070
      1019.05399903
      4101.63338724
      2545.66642924
      8843.41136127
      2114.01730632
      7821.90692361
      890.89202098
      2705.54939575
      5468.52013877
      -774.46704688
      4869.16152808
      5544.59251628
      2829.78788709
      1658.00850628
      244.41866911
      380.66575022
      2223.86455692
      5383.23912239
      3745.92626333
      988.26740413
      4034.66161304
      229.78267763
      -274.37110862
      9285.90810052
      3252.61678795
      -2194.85951900
      -1748.20561806
      2223.17794975
      4313.59951181
      2748.68153671
      4591.68748669
      4414.60049834
      4995.22378103
      -2661.24682118
      -117.77160202
      4237.81798989
      3999.56081700
      1175.74526507
      946.54649621
      118.09238065
      2078.86803186
      1680.72381748
      5056.05451199
      3152.46509213
      -478.01389022
      532.98388310
      1246.81243316
      302.49008379
      -193.48198726
      152.17167975
      -21336.21804100
      4352.41958293
      12737.01982173
      8882.07566236
      5686.65824991
      10025.41399621
      5707.55548981
      3352.99338786
      4664.20815526
      5039.00234997
      4810.65700590
      1528.90111956
      4034.14819757
      2119.92117770
      -1202.54362475
      4066.97411935
      6005.92039652
      5157.45712815
      5699.34826046
      1212.91179254
      6015.75738983
      -1405.89287655
      4698.97600452
      2910.12913626
      2434.71804371
      3330.57995885
      192.45478534
      2492.35121651
      1284.62684522
      3194.65408139
      1289.62732150
      2154.93730303
      1829.76925893
      4042.85657478
      3924.99866187
      2664.81620339
      5866.59963832
      1598.40746066
      -2828.83599911
      2070.81842059
      4762.61689079
      -2438.55336895
      1927.23635171
      5462.43693174
      5845.02529527
      -1677.51197507
      5743.00083366
      -959.70898257
      901.16197610
      3628.56813456
      4135.53237864
      -1298.69625905
      2870.23907225
      98.86608378
      -874.67121829
      1222.86419387
      -2694.75882729
      1726.43425344
      -877.58505663
      2535.94959459
      370.55334894
      -1726.32800604
      3689.73941974
      -2698.50352318
      1027.58524349
      -760.97054752
      9509.57319375
      12040.88816976
      14361.33967215
      8310.75345019
      7080.62069720
      5145.66196861
      4536.02361816
      271.01602424
      2505.69609164
      821.26217712
      8012.53526657
      8157.32838532
      1516.54325154
      2709.89421236
      4283.56901591
      3516.84855541
      3284.66508177
      4389.00954103
      5562.98806549
      166.35409536
      4434.47376650
      308.35647363
      3075.91014497
      83.93468796
      556.40927460
      457.14264789
      1484.69822012
      2174.44345696
      8019.68281579
      952.26804026
      3160.79751462
      2389.33089204
      4289.96137898
      2988.53925361
      446.68587692
      3286.42427725
      -681.80563960
      1496.36373746
      1198.34394729
      560.67093429
      4510.47595233
      2384.20965777
      4582.78785125
      -369.71189696
      912.12591289
      2024.78207740
      2935.34817009
      3379.71700892
      2069.97513619
      -106.87639297
      1487.90559876
      956.93458291
      4256.13128470
      1308.96914493
      -2099.68746184
      -151.32563918
      544.32514441
      1306.48564445
      -935.70839471
      521.32574767
      1173.54213647
      -530.39856410
      1115.12119883
      -2276.17637022
      405.88166671
      -390.29049240
      -18378.22992136
      -1857.74452080
      5681.23346195
      2297.57796836
      1302.77232405
      3665.61981862
      13212.68715016
      357.02504018
      4458.28042226
      1665.43963783
      851.39975999
      5550.67225168
      3726.47970680
      3135.57421959
      4071.36890392
      1069.19951066
      3931.76385975
      5156.80740115
      3150.04839287
      8239.84188966
      -965.90128060
      6918.69781051
      612.20239405
      6865.27992623
      6721.88998228
      1095.58171473
      3411.83586564
      55.86483460
      10620.46558178
      5216.61925958
      2472.17843936
      5031.27885028
      5043.05329477
      5307.70285015
      1470.08439448
      1158.85569244
      6015.21542549
      872.93121560
      4265.30631911
      5744.05607795
      2491.24822861
      3034.14511130
      -1987.84540007
      1208.60885859
      3210.89818387
      2970.77002484
      -1128.67799133
      813.47690216
      1726.42075689
      2028.40752877
      -559.15814316
      -1461.95469354
      -61.36152757
      134.70158391
      1326.87879142
      852.07825604
      208.06695250
      1841.62162896
      -338.30700715
      2145.61292690
      1431.19749960
      1475.19522380
      -305.03236724
      459.59942158
      1481.97118549
      950.70110784
      8931.53316560
      4390.97778957
      9135.64292962
      3267.51126312
      5087.94757693
      24769.53271086
      -134.15029704
      4770.30957752
      6134.81832437
      5027.40817318
      8729.46890732
      14828.63645122
      4700.20988602
      3174.84963455
      2830.59371708
      612.53219693
      5758.40567084
      3113.88892681
      2374.15489304
      6337.04790567
      7602.67133396
      1822.67321460
      496.88157187
      5359.36620762
      -632.82912157
      889.82352647
      -923.48476802
      317.12649529
      1138.26446683
      6374.13963813
      -188.44916710
      3261.36635350
      7324.82563244
      3417.66521910
      2031.78458519
      243.45878758
      4109.63391670
      309.98434376
      6998.07873115
      2005.59880794
      3035.88060741
      5352.37368586
      2187.37660179
      2665.73168875
      3607.23389160
      7526.50350645
      -578.60181492
      1265.75889455
      2063.82561282
      -939.53363136
      1821.87701169
      2205.81170819
      675.21079842
      2611.39024039
      -3235.82742778
      2319.97133848
      1344.94359553
      980.98589403
      -1755.50667155
      636.64671090
      1198.61029705
      1022.67355635
      -2512.09080682
      843.76008119
      851.23892996
      -604.69670506
      24108.41180994
      -1226.38448372
      5796.97748547
      3618.39227055
      6291.77407406
      6715.02897733
      9701.04255168
      4504.63503082
      3659.14028547
      1860.92151204
      2227.06797463
      7822.50969875
      10393.27050001
      -2900.18766261
      577.99666683
      3741.94409906
      3264.73231801
      4827.51931153
      -148.85153055
      -4323.18946960
      1650.02357200
      7771.44241137
      -2064.09155436
      5034.83090594
      3339.23641604
      6347.94588687
      1814.53894049
      -544.53698872
      -2255.43128974
      -1831.52991530
      3374.98565932
      -184.05324200
      3952.38290790
      -182.60457273
      571.74421096
      319.22243786
      4382.70179817
      1999.69164315
      -2925.04946417
      1316.57782404
      1565.49489866
      4029.54724731
      5530.46840315
      2452.89288456
      4839.78300160
      3316.35103841
      2843.46046334
      1019.67792070
      2718.67538505
      1839.66608556
      1816.70072954
      1681.00760096
      2347.64134788
      1835.57751461
      -295.45420608
      2457.75477928
      49.27049705
      2653.20974382
      59.47397919
      -419.89136444
      213.02776975
      3594.96369935
      -3879.15220607
      -240.62520563
      -128.40517048
      374.50284533
      -6148.15536872
      3475.62691010
      4656.17365862
      2870.30645911
      6291.72597922
      5373.99563845
      1535.47495265
      3988.61909509
      4615.96247099
      3410.67326863
      5548.92159109
      3585.00433444
      4598.25523970
      2305.94047000
      3553.34382648
      6390.34265463
      2095.70671771
      -467.55011627
      3627.25719733
      9831.88578981
      2041.51117480
      1795.05504607
      -5617.36178872
      -5823.94391895
      1355.03388698
      1590.90210566
      2074.31352370
      -1032.65850622
      806.31787913
      9473.18792867
      -1418.86399043
      4691.90175804
      4270.73128503
      1889.88686219
      9.99549123
      3999.94644628
      3753.22855048
      -1881.34440102
      -589.99402306
      1022.43897442
      3357.34254814
      4185.50349817
      2320.38282228
      2351.55994805
      4657.86903211
      -34.19741729
      2037.70317615
      1632.26299609
      1805.63752508
      2453.00684810
      3225.12979077
      -576.56374840
      3950.99248603
      1099.95765267
      826.92646620
      2670.31892726
      940.84005247
      1487.01058033
      1205.58505633
      -68.54933469
      1181.32408551
      698.94098252
      -1566.12086437
      -230.98065280
      783.21582323
      186.53993005
      14452.97255814
      5072.27725968
      -14333.82308889
      7408.54043404
      9573.55125998
      5328.44033580
      1038.13514939
      4971.25419969
      2154.54451491
      3057.99221652
      3489.47177504
      -551.20759038
      4734.01570216
      -419.75915544
      4320.62434282
      9913.85184414
      -2630.06887651
      2632.60140456
      -3315.80814030
      573.02226682
      6078.71375535
      3708.93508382
      4733.15929937
      402.79969893
      4.90433937
      1065.33115088
      2488.32426379
      1429.40111168
      6029.78185717
      206.36608405
      -1270.41891455
      4804.79030034
      4422.81662716
      3556.29626474
      3543.74128181
      1210.17260086
      382.59875998
      408.71863722
      192.61486167
      -1646.40572910
      1409.26516419
      4409.23728871
      1280.54590020
      3258.36935086
      4448.14704460
      1148.14021433
      1647.95685837
      840.14447568
      1688.95318883
      1134.31968382
      -1462.10876680
      1254.73852406
      -640.78987948
      723.68392342
      -228.82992850
      -5.56786205
      1346.71146561
      1840.39605551
      194.48384021
      299.61067559
      2034.44222728
      2491.25366287
      5.54504985
      -312.62624225
      -279.83690892
      1340.06315265
      -28338.34729544
      7260.84984783
      3144.99714324
      587.72711270
      2038.25768677
      2751.85227823
      7415.92978189
      936.62667594
      7305.56868352
      245.88251653
      4139.36138587
      4219.92872417
      5408.00138269
      6676.49746618
      525.61182241
      6028.40673340
      1130.09456376
      -41.32416712
      905.63113584
      -70.47999541
      1876.95036651
      6831.06421792
      -1472.62760075
      -335.17788370
      -513.06055030
      4999.71602553
      3560.96997183
      4610.28341680
      -237.40251418
      4583.82401254
      1398.67943725
      6524.98471457
      1261.86911255
      -1211.15566025
      2001.72283031
      3708.60615932
      1156.13636364
      8942.31650919
      -1869.28888065
      1276.49009738
      -3432.82004956
      -2566.19960162
      -879.02259233
      1875.26460655
      3363.49878222
      508.69738542
      3382.89903381
      -298.34522852
      1964.95126911
      1869.95788259
      1732.28629001
      40.05609416
      -1831.46771962
      -246.97860859
      1458.71827179
      1407.77812793
      431.35052030
      -31.41808371
      861.65998682
      -959.65029937
      1193.10213590
      2311.50664220
      -391.06777012
      -101.54282878
      136.15267939
      1530.49219349
      2818.00118836
      -5984.89592226
      -3251.91206757
      6482.25791690
      4672.14673109
      1899.98569551
      -858.23622977
      1541.84291803
      2543.04888720
      -572.74414945
      3812.53713053
      2902.32381053
      2969.33842111
      -1980.18223175
      1051.40234767
      6247.06406265
      3839.19330445
      3626.92368307
      8401.49288910
      4639.06179891
      3869.32018085
      1258.32944291
      -128.65002646
      2127.19961750
      4891.61749351
      -694.73363166
      9723.64557098
      3430.59355126
      -645.31212650
      2248.45548206
      5911.32581592
      -3663.42964018
      4580.01996568
      395.07339290
      5624.52344194
      -1174.29897383
      171.25018158
      3950.57231758
      1390.69937913
      3384.36406577
      850.33809091
      -2237.66482356
      1734.43237335
      -2182.01024876
      -5.29328147
      3539.98295204
      1029.01366775
      3614.42313192
      989.03920296
      1493.93935473
      1083.03501410
      191.66558281
      50.38891456
      -1046.43257555
      -319.39669548
      -143.95370947
      1943.48850998
      -1231.26110576
      -2668.55061887
      -1310.23244142
      1910.95440506
      -1555.03078662
      -978.63904464
      1199.57316191
      461.57861846
      -390.80657563
      12345.70609575
      7143.93399312
      2152.38446856
      7517.09059487
      1266.20008531
      5407.15647483
      3086.58832901
      3166.07352229
      1462.54671282
      1383.47401451
      -4034.17190445
      5500.60317999
      4250.31645837
      708.23201798
      172.73424458
      578.50828361
      -4920.37562686
      6178.25798135
      3622.58087679
      -2929.64146409
      32.51200956
      284.99663706
      -231.22925990
      3099.00711203
      8944.54910836
      5817.84824919
      2039.56891948
      -2602.62688450
      10025.01231413
      10550.82477352
      1696.39984152
      2253.37678342
      2031.46240060
      1992.81217934
      1651.60649211
      4123.55904502
      4042.46477432
      2605.69805456
      -2520.33115927
      1674.60906544
      308.09931003
      -1537.82528069
      -2455.28482478
      3500.14358968
      3923.81482038
      2518.78923394
      1038.25514836
      1201.95878838
      -1113.70029426
      235.43994085
      -547.90205764
      661.95400520
      2772.14357518
      445.23607272
      1959.43552912
      2157.70705976
      310.95137950
      1773.97750411
      102.37456592
      -558.77340590
      -317.42727277
      -401.68701573
      -1226.64055932
      -300.76780052
      874.08521504
      2188.93712472
      -30962.88851667
      4471.24314945
      3285.33342683
      3914.35445154
      3000.73603732
      1669.79696800
      1561.85681462
      2622.72229041
      3309.16730901
      2156.16449023
      2411.57855816
      684.51524501
      438.63918799
      9379.71943200
      1749.36432789
      1391.24926101
      2203.65495313
      7241.72433711
      668.82267410
      5089.79460273
      8200.39680684
      2455.75095515
      6687.71307274
      6995.84365583
      1060.80403768
      8656.17474618
      2467.43667828
      12088.53147247
      4791.96980927
      35.10707381
      5711.90811034
      4412.93290784
      4205.74122376
      -468.91454430
      3808.97421545
      3228.38756209
      -380.30555013
      2235.12536726
      -1395.71899535
      -777.01214232
      -42.04809558
      -1812.32830576
      -1098.03543440
      3959.86646588
      4068.65295421
      -115.82175561
      605.23357244
      645.05984047
      1244.83642775
      -570.60710731
      1217.11477337
      157.59343579
      -1157.36255107
      655.72459063
      -824.68026957
      887.78862710
      872.82040606
      1207.71522016
      928.34697420
      471.95546450
      -798.29604512
      -905.19114834
      -506.31944588
      -901.11194187
      -743.56392377
      -948.81962092
      -19317.15986296
      9714.70931951
      4052.10911936
      2764.41938743
      229.05815442
      -1014.20529731
      44.47716773
      3917.70980945
      1701.77091218
      4413.55476264
      2301.54434950
      5779.34230413
      896.85547382
      4502.69784055
      14819.11702574
      10218.20998865
      -1297.53890315
      10110.97103126
      5289.52817505
      -2825.99831264
      -451.77986582
      4107.56969952
      5719.61307425
      1917.19188756
      1685.01386021
      9684.17151402
      9115.28403523
      3752.91013732
      -7182.23377949
      2487.48214846
      4472.35830736
      7929.94979001
      866.42093032
      507.03374785
      3841.22327798
      220.18299352
      1647.29199588
      3502.83794128
      1841.38473171
      3632.50446400
      -126.40572154
      2809.71196487
      -89.25600040
      1299.38618674
      3276.21692910
      2662.51943839
      1863.80687047
      779.79712953
      -42.17492186
      120.34247577
      3160.19554151
      1387.53661218
      2280.47084251
      1600.27628108
      1651.08618294
      -237.64459672
      2110.75726048
      1511.20433746
      1485.98026392
      288.12760073
      537.61929183
      -1028.38455725
      223.51927069
      110.83236553
      -680.25176504
      -318.34346605
      4443.67816976
      5352.28444344
      13184.85571005
      2277.60869704
      3770.70334930
      3428.00114310
      5769.92176709
      6390.91401531
      2268.72491347
      3262.21151282
      4846.73202676
      5117.43818973
      10419.74444802
      3134.22218019
      -2233.76207915
      10046.54139038
      11815.29129045
      849.41074698
      3934.62239790
      1159.12437056
      6722.86367505
      7052.32771366
      -20466.78477016
      12694.96513541
      639.65968359
      -3518.44970695
      4637.50187046
      2533.41253495
      3783.46918608
      12006.81917450
      -11152.04038547
      5853.42190994
      -1275.67853059
      7451.35888927
      11942.78039121
      -1958.80152477
      34.46644919
      -5987.63318394
      4555.80069212
      2157.50090244
      1394.48407563
      1022.95178352
      3400.78927897
      76.00678745
      237.42496307
      605.57462468
      2284.14474020
      478.17623393
      1570.66444572
      2702.07415704
      1015.28890581
      1808.47232857
      -3273.70323945
      5617.39239046
      -364.41370525
      173.72439637
      171.50504066
      -379.55680429
      48.52404569
      235.96147229
      109.64759368
      -60.93942748
      -357.11954831
      59.77713271
      519.03919167
      1063.22736178
      5766.34100759
      1779.26942452
      2590.81502919
      16058.49754042
      4762.03556835
      5632.10417639
      3148.99190473
      5315.82668186
      2969.75094575
      14596.42592391
      -9535.31118756
      -5150.31692914
      6438.37650557
      -4027.30701895
      3040.71654209
      6246.90570924
      24070.40804973
      -1471.69683706
      3411.85351042
      3602.23837989
      8252.13146438
      4430.92495723
      12008.14109086
      1082.64303458
      6097.71262502
      4914.83497732
      11002.95341952
      -5334.01617019
      -1724.09010722
      15943.63556971
      9939.40991983
      1628.54585223
      4219.77611188
      2069.37721204
      5177.92317441
      7394.06317368
      7094.22153974
      -2060.95770431
      -233.79138450
      783.58429183
      -6079.75813260
      -454.63525321
      -1181.85756286
      4950.82020495
      -344.90447393
      -285.58168138
      1254.62106186
      -323.43054085
      765.44089489
      3182.70128142
      424.29331457
      69.87528943
      2509.28938121
      253.93140799
      -401.47263346
      2977.80378532
      1385.90082852
      1010.65476175
      1895.38623408
      3279.23831099
      508.44033728
      -80.02504174
      595.60017207
      783.44797078
      842.11059765
      203.76394115
      -40161.08078057
      11325.02025585
      4367.97330091
      12838.48138577
      4185.57784481
      5580.22336723
      9024.08971604
      -337.41823623
      6942.64774659
      1667.99693690
      359.59906027
      14901.38140101
      -6844.71118756
      -4309.72300997
      13171.76865837
      9380.14348953
      6548.91081826
      7314.63011813
      2110.73090207
      5848.66088358
      -244.53394895
      102.86565322
      675.67037797
      1096.45559616
      433.04439736
      3888.80006516
      3593.53117615
      2814.07339268
      -3696.55597007
      185.74754328
      6806.61992014
      -309.31555416
      -493.80602112
      8493.65928996
      7744.84690803
      5721.23576560
      -1449.99990742