<?xml version="1.0"?>
<VTKFile type= "UnstructuredGrid"  version= "0.1"  byte_order= "BigEndian">
<UnstructuredGrid>
<Piece NumberOfPoints="5123" NumberOfCells="5123">
<PointData Scalars="Pressure" Vectors="Velocity">
<DataArray type="Float32" Name="Pressures" format="ascii">
      2855.93979231
      -29215.02410876
      -36276.33196258
      -25493.28008765
      -24261.99582305
      -28560.32273856
      -29272.80775739
      3423.29863592
      5786.96901906
      -23569.16128140
      2317.00793572
      -22140.43487678
      4307.63823628
      118201.50917425
      -20993.64946475
      3181.26930633
      42645.28866162
      -27025.94562458
      67342.03732576
      3427.09014240
      11930.61449184
      153.90411306
      31673.60909310
      110473.37139270
      5974.35153071
      9338.49464879
      16451.59801570
      31049.86255609
      14994.98769313
      -2764.35350991
      11851.59129351
      4334.30854004
      8068.65902028
      5745.42789765
      6952.63896245
      18499.45591891
      12328.99280246
      5229.60824595
      5001.56206225
      7533.64923163
      1783.24173380
      15975.28835669
      2868.86986096
      3319.60056372
      1715.30370894
      202.45910439
      5346.08918670
      10604.23231217
      8699.48652447
      3049.29990611
      1671.39304719
      -1912.73279924
      -328.53282792
      3452.70584153
      5958.07305288
      1173.79117660
      2709.87354492
      2859.67383995
      6648.30492243
      2514.98827702
      8330.78787439
      1551.69129445
      1790.34474724
      2998.45430730
      -8856.27195974
      -238.90469878
      18395.93508249
      5389.50317142
      5831.43888083
      56193.99994400
      1719.63473894
      1926.79266807
      11396.86581225
      4207.75474166
      58.34353074
      7989.20567132
      1934.77682035
      2635.24701912
      2420.65630396
      8451.84542755
      3781.88334550
      782.27444225
      6198.13883935
      3372.22082711
      644.22224635
      2556.21145376
      9159.82543434
      8674.06904858
      15472.38152847
      5734.39268011
      -351.59514095
      -3794.06432279
      513.72154152
      6898.78977051
      14614.79587014
      468.77012498
      7422.17195046
      3017.99990317
      -889.39280287
      -6527.64854820
      -3910.44120656
      16347.82125893
      -4390.96878719
      736.13697425
      16663.16671015
      5757.14412795
      11294.42236117
      -2556.46764565
      11272.55741205
      2743.18550030
      5031.26199468
      16120.15373339
      -527.78535478
      -750.67676491
      824.82551717
      -723.66926789
      -5299.88756831
      3397.92716708
      -3180.44085337
      2003.53931937
      213.93136973
      -1600.88894783
      2747.03325341
      2066.13755645
      1261.71009815
      -7657.17604679
      1521.34336174
      -4383.24998146
      -2586.52132235
      -1151.27327982
      1007.81336062
      1607.33319911
      -24148.52814249
      -1285.96853691
      708.09264788
      8810.56472845
      9170.13333284
      13987.10556792
      12185.83506182
      3945.42687882
      -1544.82286075
      3053.97428173
      18739.05101764
      6731.42613747
      4410.03026814
      1161.32480252
      2692.18879517
      3317.11589170
      1290.73948453
      5470.99142917
      3967.12579372
      2588.56808362
      910.69804330
      2892.21039374
      921.98211262
      4294.68373712
      3767.58364678
      1142.68920422
      -3752.30219778
      6727.09500757
      -151.41789338
      1813.05994225
      -3067.59537209
      1924.59713371
      4394.39424912
      2387.90567145
      1847.37036393
      5533.79133774
      2961.87117715
      2359.46880545
      3281.14676509
      1894.15065235
      12808.24159976
      3251.83411918
      7400.99537315
      1170.97998182
      -1681.04603105
      2110.85889868
      2800.33950479
      -471.55809382
      11707.05791246
      3604.14776167
      3908.08834170
      6480.52351939
      -1478.97536176
      3.44820027
      -85.27505843
      -67.36326118
      -437.66782472
      2485.36520869
      839.10065675
      1816.90575632
      -138.84219073
      1779.84776529
      3659.65321508
      1133.86470739
      29451.62274006
      15.44218896
      -18716.99888393
      1027.91409415
      9679.94146718
      7245.20094904
      9060.67832696
      7129.24182562
      22125.22003556
      16383.92040874
      4939.21236789
      4875.96432690
      8595.91662650
      4132.74493266
      6824.92280554
      10231.82558116
      1969.78598657
      10793.31501673
      961.07809901
      2305.13010288
      4315.99075695
      4815.83551304
      3809.64548678
      4473.46321051
      2867.24838025
      -449.04518598
      2179.50385358
      11115.11636707
      4065.25115936
      2559.37179501
      4851.42593365
      4460.04404496
      3123.87415237
      9862.08907227
      329.04168047
      1683.05127007
      6865.63450956
      9628.34530542
      557.77831176
      329.34577501
      595.26151964
      -4085.36419949
      -2189.42880607
      6076.38579794
      4969.92485323
      -8489.19290060
      4246.80928687
      8072.27831065
      2660.84564432
      2077.97595532
      -143.13374069
      686.28374245
      1232.09450537
      2471.05772822
      2103.59387462
      2521.62341131
      3284.42338475
      3360.68076346
      2165.49524764
      -220.51117242
      2440.27025230
      1530.30919342
      -1703.70311043
      2936.94113090
      1720.12576700
      2825.31105901
      1087.83576762
      5684.96694340
      -27399.67254656
      13548.87088652
      3238.24798380
      10621.18170935
      3534.03431182
      9622.52750727
      5900.05836837
      5389.88412179
      4437.40514567
      3335.68811548
      14373.07477059
      3108.81518589
      3208.04327055
      6122.12991239
      2804.05403567
      2294.42366956
      1145.39591944
      3179.83243966
      2334.11313678
      -854.36307132
      364.79032458
      6230.89476517
      9846.00553844
      5678.21579903
      3885.86552652
      3313.61769055
      4322.66526870
      -260.09319485
      -3163.04131153
      907.54079734
      605.79607606
      -447.09674154
      -284.08603345
      1069.03006991
      1158.96786662
      1867.44784257
      266.86442894
      1430.37003254
      3631.20995114
      1828.68968056
      3440.34528495
      322.14302698
      7480.49221846
      -1632.75759817
      383.63505152
      2634.77477116
      17.75621447
      -3608.65429662
      1532.82386035
      -1400.07836658
      -4439.97363624
      1443.44384197
      4750.79182131
      1668.72231700
      4393.72431123
      2127.30341623
      1347.48771855
      922.84891859
      21.34316020
      -737.49898126
      -1235.94755555
      2458.11457448
      5408.39235427
      528.14026170
      1343.14017925
      3561.22825434
      -20980.90566408
      7655.45222850
      7285.51113506
      15229.96484593
      8169.93371734
      1855.36220847
      7742.34088591
      9191.57913439
      5581.77880539
      5572.53818234
      6739.72128894
      2341.71868824
      5023.43161101
      6960.20174935
      140.69296832
      5404.03576534
      10373.31490745
      2820.44815442
      4532.75968768
      9637.46258881
      16018.50257914
      996.69735509
      1776.34385272
      1804.45558216
      6609.78176797
      4595.83344712
      4000.55242231
      1217.95744227
      1319.00750103
      2299.41522407
      927.63319205
      5168.64110408
      1057.57898838
      -2292.18099241
      1406.97049343
      2717.33807714
      137.11344891
      2868.71334817
      2733.57486817
      1667.66172646
      -666.43477638
      6987.21242196
      5876.99055141
      2844.29961621
      2121.70866216
      10625.37877528
      587.64297295
      2419.10142339
      926.21789223
      3100.03258680
      3539.58557667
      2769.12084434
      7489.86853656
      -3628.43140396
      5767.22091607
      3885.41191096
      2673.66428949
      2131.25102011
      792.41851371
      1790.72175803
      2347.71726592
      4254.27302687
      1558.55760520
      378.88719155
      2541.89637083
      2125.36815854
      8477.70208261
      15992.05508441
      7495.30256804
      21795.58791876
      16715.26619754
      21205.80143569
      8345.67231012
      6683.42436351
      8515.96401437
      9971.82199971
      -2539.11522622
      5603.02176585
      8727.43130793
      -75.22201284
      4677.04411065
      12892.25527224
      2413.64583351
      3675.73807254
      2728.64543324
      7662.46969178
      4414.70142144
      5420.20707609
      15629.34607785
      9844.43567652
      4264.40134275
      5933.71645836
      2494.78879561
      3816.23065414
      3367.36701308
      467.27099222
      4987.52338636
      1970.64148417
      5552.83783341
      1904.53427213
      1842.28253217
      920.30421658
      6011.74910776
      828.41358693
      8108.59085959
      1973.57738762
      2089.66412758
      -52.93299010
      2905.76125165
      724.20081872
      1569.74735657
      -56.39921375
      -9342.85661838
      2673.69352813
      4384.79265486
      1645.07396623
      -1254.78298782
      1323.84655383
      183.32607201
      5461.33122162
      2475.41012036
      2711.64114729
      1902.26112169
      6154.05362849
      11791.83585671
      2541.92489331
      1205.19747563
      2232.62085847
      -301.21250853
      2094.33709882
      -678.28962193
      1499.16303532
      26110.36976105
      -1745.52432279
      3432.09823811
      9526.73904098
      13209.00417031
      5125.70002958
      9982.08272771
      5806.05702263
      15087.66128412
      4431.08497417
      8309.07350315
      11524.50129523
      8685.32435052
      716.60863506
      5296.94922040
      8952.41302782
      7201.23705396
      6125.99946134
      391.72390706
      18838.12313537
      11215.43749117
      6111.92238522
      1547.10180823
      3409.01794782
      12149.58422926
      1815.34630187
      1080.68070229
      2601.83786170
      3670.15776029
      1638.69342252
      4311.69207102
      2481.19505251
      2858.36737500
      1342.88250448
      3123.43509140
      3816.89473166
      1314.44407430
      3941.12213510
      4077.63997816
      548.07109428
      3285.43436409
      904.30774907
      7588.32390876
      1037.98059363
      3935.55628639
      2705.99993539
      -7424.91186828
      -1324.14446754
      1795.30005897
      1786.26902902
      2108.42050322
      2066.09701853
      4313.46075087
      3039.50782307
      3852.91348936
      5763.46961070
      3275.33102440
      3090.04584853
      8374.25170220
      2290.06664844
      618.57030354
      1825.00017733
      1150.02252400
      -1485.62856068
      904.34855056
      4023.32517043
      -21336.21804100
      10544.42803163
      23902.45604260
      -11178.20746000
      2809.85298752
      6004.15286091
      4814.71403058
      3313.93516253
      10689.52538969
      580.51406026
      5328.95136131
      5644.24259448
      23402.52339272
      2244.53340732
      9088.49838246
      7719.09493477
      5003.19956460
      5638.95487140
      8289.58424811
      10082.71613141
      7865.90467451
      3248.60235110
      4734.52611850
      10896.58548737
      6962.67053147
      5171.78102283
      8449.29524272
      2721.32715229
      1797.44138425
      12099.77184070
      8291.48871129
      378.44325777
      1616.28612267
      8060.83729219
      7638.25242897
      -497.95432184
      2904.49318834
      -1695.05993913
      772.24877634
      5115.00109962
      1303.16790497
      2831.19945385
      3161.58443291
      6433.33932704
      4664.93372158
      4332.36220856
      -1680.29211391
      1456.21099351
      744.78007138
      2460.76748497
      5812.88963442
      2560.02663188
      2534.60235661
      7921.58266208
      2842.42523008
      3369.91795587
      -4410.96568088
      3919.47366058
      2333.23835096
      534.67011960
      320.44823106
      393.85096944
      -1778.86272738
      -520.36125451
      1496.24690871
      -337.93816677
      3580.02902610
      -16161.55176151
      6676.71221289
      -8604.52710868
      2262.30558525
      -3877.52561585
      835.54813222
      760.96492974
      3773.04105039
      12855.34606402
      3522.02479396
      12425.07508531
      1453.83110290
      5771.40014567
      4291.69016132
      6327.02796880
      2363.01700268
      2143.57638512
      5231.94573406
      3660.07889704
      3954.73989113
      20379.30965840
      -989.93512747
      3750.70277591
      5669.41699368
      3673.50916475
      1569.80012374
      1239.08012784
      1819.17834251
      1035.55929488
      37.15844152
      1919.95443229
      597.55024561
      325.00220410
      3772.43669698
      7878.31083234
      2132.54061677
      -1431.01951505
      4533.33875166
      -226.56795098
      -1285.27049180
      3568.97873242
      6575.00699577
      65.91001495
      4286.01200269
      2253.73542591
      -3206.10908253
      -1862.77832011
      -1497.75799465
      519.95795346
      1635.20523128
      7056.12250676
      5558.43984199
      1456.32693611
      2513.58199785
      1922.13494209
      1448.43324082
      5208.25866429
      466.90176639
      387.69747715
      -465.90475974
      -1513.33814345
      -1875.57529259
      -1039.83057916
      2127.01998750
      -1954.47044178
      -18378.22992136
      -5122.03323266
      5608.95858388
      3077.60462935
      16755.13203892
      13157.72033407
      13031.06281384
      4243.15626554
      -1098.89516990
      2485.72815697
      7464.48848818
      5943.93713877
      5975.60802806
      14059.16478126
      2012.05392315
      7599.40706490
      694.24209422
      -176.81523415
      2772.67409960
      531.43223238
      757.36111131
      1352.25793150
      1356.01082640
      279.19394184
      1576.10236228
      1849.88461781
      935.13736674
      -168.64126641
      462.06841291
      -99.68711400
      1085.39459719
      2224.10719403
      3436.83350082
      2171.66757359
      805.51566479
      3761.86715843
      2144.79923505
      2238.62357932
      357.89685608
      1083.07979297
      809.57988115
      1126.23879634
      2542.54224999
      2170.13669173
      3492.16826000
      38.20714203
      9848.58424202
      180.56998551
      2223.72027769
      1713.41589238
      4108.68073700
      2643.02356642
      1914.86258071
      -1941.79951397
      1107.36609703
      2575.81343596
      3613.70864003
      1250.49273053
      844.78400787
      813.38999667
      3192.77081122
      4541.77943658
      -602.91078926
      702.93480559
      1883.78262670
      4511.82978216
      -15857.23209146
      -8095.82829705
      10284.97334853
      -7261.76120877
      5720.85590232
      9549.28648828
      12410.44010514
      14787.83585562
      -4773.26869753
      14335.63411553
      15360.30681206
      6901.79559381
      6843.87063958
      13475.35447835
      -1511.49370772
      2657.81327620
      4931.98673263
      464.49867083
      645.19363205
      398.72147285
      1422.92416427
      5174.81545548
      2308.97397639
      1242.64415864
      -0.84587013
      -2684.15998581
      1112.21596665
      1481.76993987
      -143.25328119
      783.52971474
      -553.12364970
      375.19533956
      1783.82422487
      906.84666205
      4296.06189059
      1142.06212162
      1595.26112709
      1551.88326307
      490.07301039
      244.56309184
      710.25569776
      -709.11399486
      2005.51164249
      2077.87894316
      4219.60786426
      5088.35467952
      496.92266044
      468.87343230
      -2508.50367540
      1872.21767301
      84.00505847
      658.99800796
      -2479.49264443
      3954.40316979
      1385.43291743
      3048.10670729
      2433.78214775
      732.37746885
      4923.99731530
      4432.49811127
      1158.22506880
      866.70885379
      -409.90050238
      -32.56305252
      -1714.08035479
      -1383.07903886
      -7670.53798646
      4222.91582580
      17811.60397168
      8881.38101052
      5304.89943524
      2933.74585408
      12205.41744115
      6193.38027969
      3880.72173582
      4680.26827655
      2212.53492617
      4135.61421291
      1337.55143500
      2607.92013038
      4472.01082879
      2105.26349941
      1708.62449850
      2560.28309918
      2357.09200090
      5369.68973079
      4489.09295771
      3358.39923097
      3252.35149046
      2306.90358740
      2770.87683519
      3212.44176640
      1012.75023227
      339.16414670
      1293.50128019
      4448.75708114
      1581.40523850
      3663.83837133
      -2208.69646010
      749.45453449
      1547.71900872
      1750.32796401
      -188.65302323
      -562.81070309
      2557.24306138
      2143.97883775
      -1013.50056449
      -894.97250501
      4382.93466030
      -1675.67744262
      3517.89090194
      4927.55156372
      4105.40608808
      1534.57555348
      2858.78990030
      1288.72832881
      -2097.00274640
      -1078.38901461
      -503.63409098
      2932.01380196
      3981.16445892
      2038.05829744
      1510.99282980
      5169.20204455
      1156.06841294
      1785.03115651
      2166.27724351
      -629.82458764
      3335.94907493
      1873.00452232
      401.62817073
      2808.99444158
      -7886.36499036
      2065.29377415
      4767.75981411
      -8331.22406519
      -8907.84830540
      5675.72632937
      4209.30781951
      12218.13605356
      3060.47221774
      2548.61029000
      1738.02019872
      2313.52964061
      2078.68457184
      3805.56690535
      1567.83620098
      1979.41678843
      1158.63943983
      -1230.84205385
      1758.93361627
      2301.10273028
      801.25908103
      1421.58976927
      1347.75764523
      2108.20623413
      -3486.56624671
      76.99093340
      690.54402626
      928.85975854
      -479.91662670
      4238.91696071
      6.79825752
      2128.52222953
      3026.25326742
      481.61971949
      260.11071222
      3670.71717282
      1295.81420451
      -3451.13139501
      1618.45486558
      1686.68412405
      3017.88736274
      4303.66297172
      1884.20018292
      1568.87006993
      574.93055145
      -1656.56977974
      1180.44205813
      646.51288433
      -3878.33858102
      -1266.54471052
      -1309.11702007
      -191.60554803
      -536.20237875
      707.07116788
      -766.40210538
      701.93925533
      648.87923370
      -1245.91383878
      1142.32429328
      -335.44852414
      1071.39508348
      -1334.89518679
      -119.44525976
      2558.47102355
      2482.55101295
      741.99554733
      10830.15615417
      13842.67078612
      -27919.17237965
      15661.52091676
      10276.20634119
      2564.26135525
      3386.07905745
      4123.29716844
      2215.12308245
      2237.44600151
      2385.92113182
      1641.10847195
      2083.28063752
      1208.22190599
      823.12670393
      2265.95421008
      693.63066118
      -916.28912829
      216.00189899
      1786.74071519
      1239.90837945
      582.39205149
      361.89128852
      -1267.66590642
      643.97055972
      3243.14639554
      -514.05585443
      2511.15370820
      2183.16761006
      572.40019577
      -1516.70811036
      -3167.09919796
      -1258.95005090
      1891.87384180
      -1808.26439908
      931.83930041
      335.96875542
      2557.65135796
      1425.95141535
      2157.54918734
      -1187.29720659
      -2171.68941646
      1016.58174491
      1289.63909297
      1319.11554542
      -3588.47248346
      1826.34636154
      -15.20125090
      3438.62706630
      4880.71511080
      -3318.65511610
      1115.13783928
      213.94084366
      -967.24381783
      -592.97551634
      -4134.04845231
      59.28521440
      -764.80173142
      247.91702515
      -1776.48361989
      1629.82186147
      -343.68990572
      913.01172074
      -1957.38425248
      -414.63947367
      1500.57237687
      -28338.34729544
      11103.00490116
      5372.98036342
      3749.74706584
      2763.54336636
      9582.96688160
      4349.73824279
      3379.61052880
      4142.44459774
      1377.98000128
      4263.86355298
      8038.03274006
      898.06320790
      961.82600337
      1739.55462984
      1383.89895702
      1683.06494654
      2652.30140427
      -641.96458874
      801.29957569
      1510.92956572
      2442.44124282
      3048.39751265
      1810.80883965
      1158.22727588
      5037.21994795
      2927.14237273
      -221.71950181
      -479.23720062
      2193.77474935
      -2341.38277628
      2062.42725172
      772.66517955
      626.50212861
      675.13814157
      -34.63588703
      1201.92343377
      2421.27507646
      2280.12626912
      340.81506293
      1841.09102012
      1320.30370213
      3299.74455925
      3541.87046591
      3354.61139880
      984.74193055
      2237.86513563
      2243.85164015
      4035.55435234
      -2156.82924829
      1377.26610385
      1411.31420034
      223.71316118
      556.48666272
      -1121.86947387
      260.65389091
      2463.58877765
      -3246.48343270
      1933.69308978
      1651.84128133
      -2423.98711914
      -2169.53298768
      -180.53163891
      6400.07267367
      2626.27209137
      -1267.26515280
      -11792.04634848
      -11756.63540092
      6239.96478272
      4204.35540688
      3199.10537831
      4417.49804283
      3424.93849550
      4849.62208532
      1905.10957503
      -1248.71986490
      3610.34146719
      -2293.60217676
      1776.38956426
      717.82408099
      2390.30741392
      1022.51238027
      1991.18263078
      3324.37752700
      1698.45623715
      2285.64261330
      1144.06366869
      1705.45944278
      3214.94517318
      1491.29131808
      1482.70545713
      4031.92919099
      2820.90688543
      -1060.15199600
      1938.69876950
      1453.36091473
      2492.75612028
      1885.68327383
      1905.54477192
      606.77526673
      -189.37376716
      -336.90345854
      1048.13092066
      2471.46102240
      695.59354065
      -66.48779513
      559.79080830
      225.67040981
      -1145.92574429
      -2434.08290510
      991.33816266
      2933.51368438
      627.69795008
      2986.91786075
      680.88786084
      2155.54937173
      2453.12184968
      -3049.37204247
      -1174.57554423
      -315.08529943
      -841.19040670
      261.94187226
      -3800.03743547
      3416.20104925
      -187.90443344
      -2846.11270950
      -262.65926611
      1494.08523927
      3563.03167959
      5143.69179402
      4662.41285766
      8792.74304500
      3596.08420789
      4830.35207188
      5515.53283766
      4085.43357593
      3097.01395540
      3747.75677791
      2608.72864853
      -213.02822346
      1793.59897089
      2791.52650749
      1676.91937964
      1057.82130361
      2329.19754951
      -507.43316912
      1066.18702333
      -161.92205592
      -12.80820791
      1172.62025423
      -645.80418035
      -770.36860656
      550.72639760
      1116.11119642
      3928.10334202
      1739.42766548
      2563.00412437
      2171.31252081
      1273.43430990
      2010.27574835
      1862.07213141
      238.62397826
      3158.74307415
      1005.69618482
      330.58255059
      340.14389002
      2220.65112518
      4436.72630538
      -6305.35894947
      -1388.65096426
      1747.60682637
      466.89983875
      605.66543304
      2265.35316726
      664.17998735
      161.53687556
      768.30993393
      -5778.68332553
      982.31478303
      -6287.77536477
      -611.47535485
      15.01801379
      -3736.70576213
      10.23867683
      1949.13338428
      201.85268887
      -988.16625811
      -476.68589681
      6451.99561219
      -1157.62354313
      7993.09270734
      883.98239729
      3751.98052075
      -596.57118427
      4877.60055087
      2740.48610779
      1811.07058103
      137.57716484
      -30962.88851667
      -5678.75686574
      6315.14920413
      7509.82578030
      714.31302961
      2003.59688171
      2993.17028211
      -242.45646060
      1552.99917915
      6506.51780459
      2021.13779623
      2648.67028618
      3221.82389831
      2563.07059645
      466.72590955
      1732.63124998
      2031.76047603
      1742.39748233
      1107.82399061
      2096.04227884
      325.54653842
      658.56740925
      1807.61602205
      2588.00479084
      1597.52342112
      2073.61661424
      3081.41242754
      -1163.45917535
      -3939.10076375
      1186.51895774
      1777.59547525
      41.43846170
      304.47078099
      1057.08206444
      2041.83738302
      1493.07490287
      -92.74180337
      -79.75760979
      -1735.70849967
      591.32343547
      -722.84020339
      -539.02620230
      -234.32119287
      234.77428486
      830.54668005
      -570.47028191
      552.16101241
      -85.88061264
      124.49271997
      3025.27104613
      -1966.70864418
      -288.50822399
      4423.24240144
      773.25933823
      -766.75566499
      1427.34135960
      -900.43531038
      1208.33351527
      -81.81304491
      -40.56327462
      1204.66144343
      5117.68920457
      4082.65449025
      2315.29066986
      1539.94149473
      -645.46248093
      -19317.15986296
      3439.32525334
      5463.95063096
      1744.04290713
      6561.79990603
      2008.54660857
      2496.63400058
      3512.09125547
      3449.82966406
      2164.42857351
      3871.21659487
      2178.46358135
      832.97934645
      958.66024301
      1834.78672155
      2757.55157892
      1831.67492518
      2773.44264571
      1244.22666855
      1658.70805645
      2046.13940774
      1407.68745459
      1567.74522220
      1054.20105618
      382.54756068
      879.40314519
      727.91640013
      -93.17203867
      622.85691709
      125.02387751
      948.59001500
      1971.69531732
      1777.16523780
      1770.05364754
      885.31468445
      507.19947815
      306.95755518
      328.00301320
      2607.32036193
      247.45069126
      1686.73563623
      2275.98887816
      1048.72422785
      946.13872125
      1228.19228809
      -140.26849339
      -194.20701899
      -1016.28656924
      2182.76760237
      -132.60960503
      903.46484810
      505.37742264
      -556.17534293
      -677.14378208
      493.35954770
      549.64983242
      -2068.12493658
      1223.16832808
      1396.52738690
      2890.90499365
      1955.86776897
      395.84431798
      5026.89611931
      2892.41947427
      2120.37651731
      6418.94130348
      3211.75720808
      1009.27610082
      8925.71280510
      4571.18733202
      371.43306702
      479.43090857
      4019.26495358
      2543.57175234
      2588.30109312
      1905.59437575
      1109.82842073
      2419.57032427
      1387.64235869
      3758.58861406
      3875.41777700
      1460.07632416
      1589.60663561
      1344.91813689
      1578.22803217
      1312.71241149
      1076.70579179
      1138.78203631
      1198.97775153
      133.25670877
      932.94000315
      865.48638447
      5188.53329783
      1444.18661206
      -41.74484021
      284.03281450
      -168.26864449
      731.14157748
      -226.43340306
      1107.26025565
      516.03769847
      3086.64493776
      174.77727979
      772.39780496
      192.41401416
      -633.46333822
      308.03833057
      3569.79595747
      1125.09827071
      -139.14678762
      1613.30544707
      454.70897265
      555.42002531
      -365.91085832
      15.09469458
      -3964.49420732
      94.84901040
      -2623.25408617
      1148.77405226
      968.88179363
      -1651.76169213
      118.81873146
      -6856.42236350
      1306.94602982
      2864.80437264
      1470.67361557
      1316.55796646
      1666.76063528
      613.61495220
      6630.81649251
      356.00020018
      1611.77420800
      10102.19874687
      1351.07896724
      2778.13940603
      3377.08020104
      3693.88983608
      3071.77361265
      2842.43460487
      2609.51068674
      1118.90814982
      3392.10373321
      2663.81144241
      1093.72563448
      537.58845331
      1629.69921652
      6276.74616260
      1846.12431280
      1928.44242725
      3687.55224265
      6491.69895262
      2039.54341871
      1731.98776736
      2441.15892713
      2060.26967946
      -1958.41372049
      9299.75357955
      2099.13856057
      3589.27277348
      1176.27478129
      2725.04788928
      2745.02083143
      2106.95361707
      618.28513254
      2658.80907475
      -240.44431505
      1721.21114179
      826.13845508
      2575.11623679
      1546.40406945
      111.71873204
      702.04495480
      736.62346867
      433.69495384
      -452.63419184
      -516.65095998
      -168.50549327
      -826.02953794
      -709.21685940
      -651.95529396
      -435.09062121
      -620.01278413
      -192.23978518
      1373.59189670
      1423.40317192
      -896.15978671
      922.57016552
      -79.36920099
      -1723.64511989
      1404.05842954
      739.16236283
      1144.62052468
      4205.22557054
      4079.34059783
      1144.08160796
      6018.59451935
      -475.49582937
      1833.02470841
      -40161.08078057
      5992.43182222
      1072.36858166
      4836.14942757
      1337.88045132
      842.33263717
      -28.56143977
      1611.46848728
      224.28741429
      684.08253620
      4953.79404243
      -321.09096752
      3540.23887316
      5478.32866622
      4496.04797514
      1171.71259664
      3391.55807506
      927.74175279
      1059.72945914
      -213.93507593
      1140.63834148
      10292.32256873
      14266.92941261
      3156.28484815
      7011.43470771
      3234.87369295
      7545.81292928
      4340.23324450
      -47.98013472
      8310.33305482
      5953.76581146
      4377.65766148
      -148.64337547