<?xml version="1.0"?>
<VTKFile type= "UnstructuredGrid"  version= "0.1"  byte_order= "BigEndian">
<UnstructuredGrid>
<Piece NumberOfPoints="5123" NumberOfCells="5123">
<PointData Scalars="Pressure" Vectors="Velocity">
<DataArray type="Float32" Name="Pressures" format="ascii">
      -568.91656940
      -20461.82475722
      -25341.91582618
      -25493.28008765
      -24261.99582305
      -28560.32273856
      -29272.80775739
      2713.81401654
      1027.35719927
      -23569.16128140
      1582.09919936
      -22140.43487678
      134.61162246
      2512.77716226
      -20993.64946475
      -631.22446315
      1322.09015450
      -27025.94562458
      -4533.40555480
      -2074.92385089
      2592.65318130
      2680.46659238
      -451.69532537
      1322.33716104
      70.67958160
      1454.88697521
      -1566.71071053
      2343.41554381
      3050.96103821
      -1080.52302733
      -20.21453600
      239.40301930
      687.18071354
      689.07858982
      -2568.49588782
      1774.03688377
      1083.13127325
      1574.43937631
      -414.15697709
      -580.08096095
      836.04739768
      63.51945104
      845.15997097
      410.07616719
      1062.16677683
      651.23139215
      671.11748306
      146.51096744
      -672.78596864
      -514.48689344
      -583.84749967
      -495.80293067
      -345.77904113
      -1164.13133703
      -1385.29440689
      -1976.91121309
      -2465.69207056
      648.50967914
      343.46165471
      528.24507817
      102.73608840
      1222.74656266
      872.38611996
      601.96267657
      534.55283668
      -257.29125379
      -162.66796224
      5389.50317142
      3005.16745228
      3317.85809904
      604.21434895
      855.64391711
      884.92065449
      1761.53268764
      2202.95982400
      2345.83850763
      -946.16190350
      168.31891115
      364.50844002
      122.32520360
      -3.57413183
      788.86729622
      9265.45932772
      -331.18387017
      -509.62612117
      688.60273450
      -2612.23300396
      3351.48679387
      2283.53429864
      4273.19726828
      -707.26306019
      -2092.44606617
      305.95900360
      2311.70708364
      3241.87130817
      859.36952882
      1174.43813201
      -1076.43230189
      -6649.39764389
      -1381.19792668
      988.51798001
      -2183.65748961
      -1122.16595436
      3361.69897273
      584.49445709
      -2020.98119551
      255.24793714
      1064.26091650
      -1413.85928739
      612.09576918
      2121.57545440
      562.35300401
      -553.58519875
      1091.46125405
      -403.36780233
      -136.61168364
      538.19016616
      -209.82957582
      285.01080717
      184.44982491
      172.03668059
      509.08352795
      -837.56297312
      151.34733021
      339.06668439
      781.10094740
      671.77228820
      825.00178482
      627.15963564
      689.77687786
      -92.96375756
      -565.20692643
      -24148.52814249
      1633.85280225
      -1051.11081976
      4357.81829409
      -645.74229555
      3955.53566994
      -1120.78451740
      681.19719705
      595.06174287
      889.35083339
      5705.74957706
      -1093.59602974
      46.41519625
      521.38242384
      6038.53935921
      5649.17612599
      4955.17698061
      2561.72884354
      116.77794673
      2871.43981101
      -3682.09764781
      -4370.33233104
      1190.81567927
      -2158.34681688
      1878.16398910
      -811.54751639
      4.95538405
      3374.62333015
      3640.31305108
      5478.43488142
      5683.25411350
      3609.97259767
      3162.33856922
      3277.58043334
      8934.40368267
      1740.80314089
      961.64450266
      1654.85431900
      973.09520780
      -1395.30830691
      -293.18913523
      271.26623906
      1166.69779148
      970.71064013
      2560.09703872
      -681.77736413
      -235.13656610
      3172.94282379
      146.73380643
      1346.18391496
      1225.04928771
      1421.86800756
      -655.48346839
      1188.76955468
      69.45571628
      -352.88887974
      1252.95495715
      -2091.51529902
      -461.84640864
      -460.70190637
      -143.68357331
      955.57952851
      853.87064509
      -331.85247264
      2079.85747540
      396.33613112
      -18716.99888393
      2082.44557652
      -843.77565930
      3078.44968043
      2648.59346203
      2718.11627818
      3218.18359863
      -167.42154089
      -1239.54799414
      2568.54526345
      285.20710784
      1148.10853692
      1572.37958165
      1972.62873661
      6793.36509121
      4447.84588854
      4096.27767664
      6922.99245236
      5179.74616046
      3022.85272931
      -486.90336623
      -1453.05409652
      3783.40883131
      -918.56521080
      3032.02102361
      3712.50482951
      -1021.29368961
      923.49180320
      -648.40013989
      6444.05907023
      -148.71310615
      -2000.89793447
      3224.64931404
      492.07692122
      1374.80454965
      2251.65798464
      641.14478964
      2520.21950013
      -324.98111179
      884.40677570
      1818.80194217
      2560.31685473
      2732.10423914
      -348.40088466
      4956.96571768
      654.75044604
      834.86012272
      -131.93253913
      -2222.75549935
      2980.78977940
      1243.92272680
      -210.77337577
      -152.24573050
      1808.13661113
      999.61356565
      -1612.40752362
      -589.89146759
      -0.83659958
      -836.76257630
      -660.16522185
      -1488.09221915
      369.94946630
      196.91919626
      929.59655744
      217.12380794
      1044.53882479
      -27399.67254656
      7401.77541976
      6643.28213486
      4797.69776381
      6468.84289163
      7600.77919073
      2349.24123952
      1338.32724637
      3446.38193406
      -3630.55070441
      -2628.68959446
      726.77900784
      4863.83662631
      4105.28819355
      3613.86093715
      1727.09294680
      2021.22012691
      3054.28835190
      1522.45439816
      3013.35535791
      123.52486238
      1741.91728773
      4373.05790949
      -660.73928471
      -74.90920136
      5373.86793730
      760.63987941
      -1087.90424364
      2992.97686520
      -1523.94462878
      3842.32171745
      1003.35236270
      3045.58157719
      542.74416892
      1656.05058046
      -1271.64301188
      1142.44640092
      243.09111688
      5201.33875559
      1879.66068686
      -1235.96307186
      2786.78605664
      1156.35937607
      1774.87456957
      -75.19263163
      -494.81812021
      3528.26610662
      1481.53811473
      -327.39852464
      1850.93172550
      1665.66490915
      3006.15756416
      2244.37911082
      2167.58764869
      2517.22184121
      255.75600900
      1384.69257507
      618.12008637
      887.90359960
      -164.11488105
      689.13369384
      -42.13895070
      -248.25688962
      27.95136917
      2351.39984874
      -694.84610989
      -20980.90566408
      6134.76001548
      12512.55819117
      5479.25404404
      9569.53108211
      3669.47735096
      5917.16621832
      3107.04437810
      1727.03674083
      4994.31173098
      2799.51303250
      3728.76780143
      3643.99586158
      3587.60768336
      1592.92932225
      1944.67095129
      -297.47300856
      3064.19742071
      -1902.36988047
      3109.37558255
      -2134.84456145
      2008.77269636
      -1767.02176671
      -2105.07739610
      3428.43491567
      4283.96371644
      -1680.02193235
      1608.27683841
      1171.29342962
      1892.71466259
      2737.30574227
      -289.41713898
      5239.56050448
      3869.58458570
      1374.19539583
      4773.44686295
      3627.24205565
      817.97485210
      4393.42457038
      4977.64225808
      2637.34733073
      629.60687169
      5541.48679097
      -1177.38767839
      516.22176517
      -740.95521510
      2281.52962178
      1595.70472878
      117.33811375
      1386.63038749
      2562.75644344
      1406.99333493
      384.75958019
      -2222.04130479
      1855.48032876
      897.12621999
      1190.92150822
      3771.76333059
      2495.82267611
      1352.71648833
      1861.21034165
      46.93135546
      -1705.81632976
      -1439.06520738
      104.43878756
      761.42666670
      7411.34160921
      6770.10011326
      3850.86149090
      -1972.66757181
      6918.04302306
      4753.42101838
      4018.13981236
      6794.70436184
      4321.86274832
      -945.31515788
      2452.95583543
      -2675.77125922
      2904.24252745
      2457.98038706
      3662.78226102
      7274.38948887
      1500.78391330
      5521.64522447
      3929.43182935
      5990.47759004
      3625.50228485
      -1912.77874927
      2662.98380086
      9031.98977158
      3281.97194453
      1753.78099937
      5494.37541609
      7929.48188961
      2892.94723800
      213.39596036
      3375.96981653
      -1222.50324126
      5771.62957761
      -426.50108683
      -4565.54481422
      2884.21944547
      3561.99184702
      1071.71283315
      6727.16544050
      -822.13330211
      17.39520442
      7043.25482037
      5048.05587583
      684.89033414
      2046.76710612
      -1578.01104802
      2851.41151721
      3687.64588717
      465.91183647
      771.82534984
      -178.87065571
      282.07512333
      2582.36147189
      1996.59918790
      -53.53599227
      1371.03637367
      1204.44124284
      942.40068084
      181.85334639
      3458.98260175
      1326.34445353
      -1879.85764285
      -971.96626629
      -1229.49681961
      34.98954354
      499.36280299
      14034.98764958
      3487.76841328
      3471.93121430
      13872.82694835
      2622.12823489
      14030.50984314
      10473.84081759
      -681.95202401
      2223.45833864
      1751.49956927
      3612.54531435
      3123.69127948
      -583.44210417
      4171.46195630
      -1018.37247509
      2214.63875441
      17898.25038042
      -7565.19933897
      4245.44314444
      8743.79354342
      -58.51462226
      1711.13282916
      3816.20926230
      3905.61112082
      8860.87835572
      2550.70242070
      -2674.32546980
      3400.37154089
      2632.05568037
      1853.11834963
      4669.42957979
      2555.65623101
      -3749.70559363
      3415.29075046
      -4682.81598783
      1089.47791459
      -2929.04920897
      4557.61955911
      -2776.03590884
      102.05573628
      531.62170176
      1898.72680616
      -636.01209352
      1406.20982225
      2456.41559621
      -982.20806427
      -291.75812977
      -39.07691394
      3515.10799099
      951.52466015
      -117.43544564
      594.98232017
      755.17819489
      -159.32924067
      470.30043124
      940.32239845
      -5022.96714759
      2452.68071595
      3422.12301790
      1202.89158935
      2702.26235648
      1249.26114790
      -2798.64304135
      245.72054101
      1122.00935925
      1244.99961291
      -21336.21804100
      8293.98163030
      10364.82728691
      13089.67900592
      10204.37949465
      1767.45864906
      4514.23817134
      1681.10004773
      13905.51724342
      1648.38470194
      261.49649077
      5887.60249084
      3312.91799972
      4367.17950801
      -2886.24547179
      3542.48372755
      5869.22665138
      5267.30342020
      1737.47763390
      2738.98416004
      6039.34808019
      1269.43735534
      6383.33130898
      3105.76258644
      513.43629209
      2401.14139505
      2626.56864580
      2701.38325738
      2163.41983711
      20.66042434
      5213.36760738
      1749.83054086
      3026.15830194
      2926.71689505
      -1419.23641355
      1454.25256035
      6954.65035032
      1979.85205232
      -56.57692130
      2490.43629437
      3783.68481985
      991.65653675
      656.40250774
      6445.65236283
      3604.34859761
      611.15735250
      -479.18995593
      -1737.80547275
      2619.03407040
      1871.58231082
      -269.41355974
      1212.41941838
      -1547.71091429
      -848.06824070
      1723.69104593
      1981.90897308
      -2774.10771271
      -162.13316255
      158.81334092
      2854.26991685
      -46.12795117
      -86.12484281
      -1975.86284887
      -1019.87723754
      -130.29153684
      -436.84749814
      15644.31990899
      7332.84417538
      13778.91093469
      13864.86525639
      1714.99032482
      8742.34060561
      -1512.72771585
      2236.45772875
      3292.90232470
      3489.90922101
      1206.05439784
      2154.69086184
      2594.79836557
      5743.43916492
      2322.70532129
      3355.98966696
      3602.54398581
      1954.26057323
      763.64725075
      2077.74014467
      2845.10376223
      1635.17271647
      3200.64312793
      2785.52327200
      2187.25261711
      2855.01442329
      652.14808436
      -989.32014892
      860.39693621
      3295.16282942
      -691.79327291
      -678.19736841
      -2154.55688925
      5182.46104204
      -2105.57143743
      622.61099562
      5850.30760356
      2326.37207619
      3786.94444320
      1430.15738864
      2058.49350825
      5998.00245549
      -305.19432569
      2031.17106852
      2192.44392986
      1403.64875529
      1717.65444385
      -371.40593700
      -1626.06360579
      1338.78158335
      1574.86112752
      433.53106360
      3830.02842748
      -674.36339990
      1399.18646463
      1332.39340630
      -2027.41159508
      2231.60343681
      -141.77739806
      -1368.96499299
      1410.26081317
      2628.23089070
      -679.59034543
      389.64812123
      789.76876134
      405.71987995
      -18378.22992136
      -8499.81504270
      8223.97165004
      4301.27956230
      2400.31983520
      -674.07385965
      2992.03691021
      2821.61342065
      5690.47534896
      1407.38052002
      2598.03998442
      2296.17134953
      647.48643665
      1881.15671737
      893.40940732
      1066.03332946
      -734.43219777
      3960.17085550
      2720.66849860
      4048.91544276
      2759.27131682
      3809.68319207
      -288.18861001
      -550.37906060
      1107.59707226
      585.21975717
      3933.02000172
      2278.08585974
      791.08607227
      1094.68407603
      1022.65769494
      975.33692072
      2177.24406890
      2451.00664043
      2537.23300024
      2364.09339229
      1061.59962991
      2192.00471215
      1747.62815227
      1007.59882396
      2543.86702753
      2468.76157469
      166.08992026
      971.80543646
      1608.85212334
      1077.21335777
      1552.52278705
      861.96200935
      3040.47649950
      4415.49070698
      910.95033806
      -1284.41740079
      459.89151989
      1283.89006291
      -1967.80334237
      -757.81937903
      4584.48032869
      -291.18358459
      -1801.89273981
      1347.61924132
      234.83959808
      1616.79961780
      -155.97337285
      -424.54078391
      604.05551483
      -221.53218828
      5231.70865745
      2286.09918655
      6958.25214939
      3125.63095893
      3968.85026209
      4345.33090023
      1217.22149911
      1719.65022895
      3108.02518897
      499.71748353
      1214.74457035
      -1228.69665157
      3451.74955232
      5008.22436926
      -1533.36797894
      1472.39173850
      3700.41547042
      17500.36220965
      -527.01626774
      -363.41756849
      6134.77685084
      2261.81965770
      2131.66157177
      -371.72546639
      1372.11621349
      -3600.27926545
      538.47517451
      5268.60284379
      889.00129273
      1631.05602129
      3083.05989746
      2115.17122572
      -3129.89972140
      4913.05050335
      381.51388547
      -1362.22743889
      297.08288719
      1342.23579760
      2305.00137072
      -1232.31000162
      723.83735182
      -98.28619840
      1511.99997154
      1338.19804198
      2086.31353196
      2908.32791164
      1343.73681851
      -364.60886715
      1467.15795386
      -165.36000056
      1915.14435785
      -2059.95064938
      3017.47311739
      1415.70864054
      1414.78678769
      -153.24061811
      -546.37019368
      -809.77030847
      2228.12737236
      707.69223785
      1285.39980616
      2322.35572422
      -459.23846717
      -947.50281600
      171.06926085
      492.73460656
      -7474.21660665
      4217.86087017
      1527.58762276
      4249.37659465
      3653.43975275
      6592.12036441
      2886.87706342
      2805.33697302
      -4354.74597580
      4922.52089002
      2361.99256016
      6846.97290951
      2033.84645677
      2660.00247220
      2051.41618307
      2514.43034500
      942.73784026
      -5563.36575581
      -6388.89343521
      139.97900335
      2057.71005818
      -1229.61159670
      3279.17844219
      -861.52769669
      212.64461387
      2069.83585468
      -7544.24859386
      998.13758818
      6214.60300185
      7078.92784757
      4487.80465185
      67.19398879
      3125.77760504
      -64.57782973
      2640.37878052
      -3295.52495407
      5206.73806517
      487.01445243
      -987.75633323
      -147.58342739
      1639.67602700
      3817.79592711
      911.34680193
      436.21362990
      503.89511302
      409.06441802
      -2318.61018838
      1296.46387375
      928.79375174
      906.30566359
      177.09900420
      -1268.36675338
      30.38103488
      2456.48392701
      230.25482209
      975.51998991
      251.13886583
      1674.47113331
      -1266.01931247
      1164.07395895
      1726.02309903
      146.09735228
      729.16909486
      -150.86989238
      -251.59310985
      -460.38241636
      2264.56225372
      7235.38915076
      1338.02886154
      3716.25795302
      5828.40251644
      3669.22097366
      3337.77663149
      -990.44051706
      1430.36564106
      5910.99563307
      2726.57471990
      1401.63422108
      1096.99106402
      968.88301163
      2175.22318387
      1651.58320671
      1618.64728271
      2012.63497645
      4241.65528532
      4293.52983117
      3543.83064770
      2275.84871144
      -1734.52041414
      -58.58486126
      1695.46864993
      704.97792042
      -4948.09685303
      3044.96441553
      2181.28720692
      230.45000902
      -692.09903534
      2125.01666102
      -220.53587925
      -355.75260751
      8051.40974927
      -6772.22112607
      2136.80787770
      475.58372343
      1196.02381557
      1505.98439786
      -776.95251164
      -587.03868972
      -3873.94691427
      3891.55130912
      1515.39671128
      -1186.05145074
      -2744.43225384
      1990.81971075
      350.82323789
      188.74441767
      945.92284821
      67.84498484
      -1269.90927919
      2252.30589693
      1136.81106877
      -1110.08864909
      355.16348405
      2015.59767240
      414.50140043
      -312.82743359
      474.50377879
      -1223.27669596
      -483.07630229
      123.59708827
      -334.51383931
      -532.37712610
      12559.87222029
      10014.53798001
      3975.41388278
      5709.40686343
      6963.13615440
      2524.68187887
      3501.42062895
      3084.53363737
      2389.39401183
      2931.46804359
      1342.78457960
      -929.83340874
      2532.55510793
      4395.23217277
      2779.30900143
      3999.93137337
      3236.84091337
      -4365.55692863
      2525.23475410
      -1355.28449016
      5628.73839457
      1902.25854547
      5899.31073815
      657.20427568
      -1870.48581798
      -1361.00073985
      1018.00759256
      2502.43419211
      2134.20374296
      3218.07980148
      4749.69766996
      1273.53718074
      -819.32936974
      5514.06511774
      -1456.16261471
      1972.79450746
      368.64086013
      5360.90364613
      488.74169512
      1475.43701984
      3710.16494179
      503.90309781
      -3439.80111931
      -2568.91838780
      4555.72997784
      413.13442977
      216.85394992
      796.70721871
      1364.17489458
      1365.09366065
      503.17018873
      2612.46987169
      1004.22947885
      -463.31804004
      10.57598219
      885.21926810
      -129.12390421
      -461.36690007
      334.63126284
      -111.64046732
      2383.27998852
      -301.12701448
      -275.56552338
      -178.29444740
      -49.07320225
      -429.54422860
      -28338.34729544
      4274.81463174
      5681.84150195
      3805.30778638
      1266.95004618
      4028.71193382
      276.59817556
      2455.27366173
      1131.17179726
      5015.64581028
      3164.46837026
      3465.53505179
      2407.39384475
      4483.24295080
      1014.73783698
      -1763.92867386
      4435.33934588
      -2757.73853811
      494.72492860
      1598.30511473
      7189.72482160
      8735.84340168
      1849.03693209
      1204.73400669
      -1911.06924878
      -3082.04632246
      9004.23799384
      -5879.21266349
      5548.48174991
      2521.37104923
      10813.61529750
      96.54653958
      -2110.63691490
      72.59910048
      6357.35745209
      3087.08062169
      300.47117355
      2989.06199742
      1878.56330144
      -718.42670749
      4049.00653554
      1768.97611945
      976.01980470
      1913.48365028
      6539.83786105
      595.81485240
      -4002.50912856
      1296.52394169
      793.52942694
      2658.88766956
      -451.55978566
      2688.67012043
      179.52889590
      756.66258144
      -857.97071233
      670.75900831
      407.62097283
      -390.72423112
      346.95821520
      -312.74146829
      -73.96390487
      332.71286143
      256.73238803
      -274.02507430
      -60.78209177
      728.77822689
      2607.29831797
      10450.62160574
      7435.30729840
      7758.31358349
      3866.53404778
      2609.69307516
      3128.87365936
      5484.21028940
      1822.65484489
      3629.38531676
      4242.09967671
      -1071.18278369
      7839.46491316
      -7395.21160384
      2152.32362341
      313.63552031
      2874.23168634
      3961.13381623
      8368.76048556
      11065.47041255
      5583.08375656
      3568.42492095
      7722.00636301
      3876.77415337
      -4504.59211991
      4594.31476549
      6619.61303527
      7595.73329669
      2634.21909543
      4219.73844167
      4990.03880238
      929.33067460
      3341.40945133
      -2914.76293809
      3045.57393500
      7599.67917914
      417.29494877
      50.60035201
      7282.92500810
      2092.39364358
      2472.14844168
      4092.99096699
      2152.74384353
      -3681.33457670
      -2541.88048132
      1166.59764096
      1072.30991439
      671.24422789
      54.81971498
      -268.99765358
      1871.09043474
      542.45996298
      1049.64645231
      693.42890710
      -438.33903510
      12.51770374
      -1855.19656955
      447.38889009
      378.36515136
      -532.87744543
      -224.58561428
      -178.37829503
      -181.50001766
      53.57363148
      250.53579397
      -64.02921064
      5592.44425831
      2455.40246072
      3488.15117360
      4576.04521228
      1092.83955143
      3527.06340212
      7244.52486360
      6421.61925014
      7329.56981916
      4231.67693124
      3078.07651597
      3101.30153034
      -253.09531080
      12370.68625223
      7121.76742335
      667.28247255
      5221.82436934
      1367.48431871
      5755.88992592
      1344.81939065
      331.08646341
      3479.34594343
      141.13380898
      6407.10023264
      2534.97340828
      6446.26224365
      2601.56246108
      11427.52245094
      7449.81775474
      5373.38078014
      4727.54264287
      2726.79139869
      6059.95300586
      3301.99547922
      1835.48663799
      8316.38156107
      5960.85671996
      2690.59323755
      3814.52245812
      -1.89075884
      6191.48093542
      -1644.62029014
      5018.03456389
      3284.09871286
      5155.98401093
      1657.54236159
      -180.11621416
      1734.51188908
      704.04678127
      656.96431538
      -1242.01012747
      1380.05444097
      84.89909071
      2597.84349686
      -443.90477321
      -10.00440759
      810.63429549
      35.44025521
      10.69807608
      776.80386161
      817.96571016
      673.64351008
      468.81036600
      318.78877191
      -145.72420950
      -73.73184286
      -30962.88851667
      1990.54252206
      3591.30685547
      1768.42455879
      249.99930944
      2642.39362653
      1371.98333388
      336.90640181
      9541.37779273
      2825.39583553
      -2086.52925891
      1442.40854664
      4556.90631325
      -119.13417324
      10715.26225521
      2732.35554775
      15843.44417686
      -18.41982919
      2290.00206434
      4811.37100621
      276.97054211
      -636.97878618
      5428.50056993
      3493.84343528
      3206.77998924
      6744.48683296
      6210.71657415
      9504.26908613
      6680.04468456
      1853.53511737
      3204.28109474
      1485.66312775
      2344.25591079
      8456.99247098
      3810.14018731
      3722.29677229
      1455.01911759
      -1185.84364930
      2259.01920854
      12497.13504995
      9954.31183711
      4006.50407190
      5096.46238396
      -5038.32643754
      7464.50646242
      -3408.32420208
      2567.44694420
      1155.77015398
      883.84992838
      2535.79984828
      -478.88298204
      123.66756311
      -241.38398159
      1172.52789321
      1701.40456930
      155.89447636
      -129.04674529
      879.95060154
      1319.67808366
      -263.98004032
      1020.39176753
      786.37274548
      475.16871800
      309.71792104
      162.39410212
      413.04010034
      -19317.15986296
      6151.62353693
      1624.32986252
      3088.04917570
      2406.75502274
      10028.20203106
      3973.53006877
      2439.71838123
      2998.58364221
      1092.02668324
      4620.19502672
      4042.82283047
      2264.07302626
      10171.35470273
      6266.19510171
      4391.65756335
      4225.79323591
      4827.79825040
      4158.39993982
      1298.50251344
      1293.72970433
      5224.09500294
      688.75056438
      7057.02596520
      -693.46486632
      -2721.82593067
      4282.52943978
      1499.34100052
      3194.02064070
      2029.59167041
      4023.45123881
      5191.54289735
      4067.82474883
      6225.39449349
      1024.04574069
      513.39106712
      1373.22362683
      -2902.02829379
      3957.87616859
      -391.14769930
      6074.66309591
      -1317.00852660
      -529.29287728
      1557.30973033
      -54.48923293
      559.27790943
      2062.87000126
      -1279.05797088
      -2389.46967372
      711.69987813
      -110.89681528
      2040.30618767
      2548.94197002
      294.30801609
      1559.09407135
      419.01310852
      253.14764625
      -310.34866552
      529.96355193
      95.83880707
      -53.93289777
      118.44412257
      630.13163404
      556.76423580
      -48.20956232
      -208.19486805
      5071.46342857
      9235.36873609
      4028.26725154
      4782.53830286
      3201.88672196
      1616.58343323
      1590.73676831
      4116.14032055
      5157.57070193
      6486.25455121
      3761.07840632
      7012.86800172
      6423.71211620
      3533.03195983
      5133.87444523
      -5867.52856914
      102.76631798
      4174.59107941
      3203.86268911
      2641.13421944
      4041.22896498
      1523.62713139
      1069.62484177
      1874.10365204
      1489.40225585
      6101.35559980
      1682.42886627
      1518.54141291
      4976.92501320
      -4532.30396987
      7676.77508170
      2291.38869160
      -3191.13978776
      4058.17683208
      7892.18678565
      517.71474414
      -258.85099610
      -876.66357599
      1692.42898657
      -2162.42617970
      -53.52027080
      391.67559967
      5309.21372572
      2114.28463706
      1283.40160616
      5258.19635833
      2610.79642276
      2320.60486510
      1269.43766033
      1526.21723393
      684.16877102
      1207.18767476
      -255.75688453
      -1981.42693065
      508.94240113
      -547.83546483
      -449.90647722
      1798.55116826
      998.88927902
      -151.93461650
      -1140.04701542
      932.57083454
      -127.98055879
      780.51434790
      819.19636537
      704.56409306
      -1869.46592896
      4722.70515138
      366.30305518
      12439.85890168
      1226.01277770
      4596.12963769
      8518.50294287
      9249.86682076
      4153.19837912
      11728.03962326
      3608.29775678
      3463.67751962
      4359.94330037
      3497.87983800
      53.53172411
      3203.54809912
      1613.62469003
      3188.02196283
      1667.82604337
      3230.24034597
      2214.10158550
      2724.08325896
      -539.54482225
      2796.65265976
      4192.93216444
      581.17033147
      1571.61951594
      3235.95929152
      1179.87553375
      3728.69084621
      10386.67227333
      3475.05893484
      4073.88196324
      935.42262545
      -749.26640914
      5118.47436372
      3220.14735905
      -1179.36486970
      4309.43754488
      563.45499163
      557.96068484
      759.51460275
      2772.43949921
      166.92804213
      -822.02189651
      386.67304334
      435.54572525
      860.39395207
      1437.95524805
      -1153.08360107
      -2870.08822441
      -309.32817755
      1985.35940740
      4128.17788319
      -594.22998827
      1481.43173126
      4611.68722801
      -2014.35214318
      222.94340937
      -854.86386004
      1624.80958406
      529.07446081
      625.84931293
      971.07546748
      2025.81458936
      814.39957320
      -40161.08078057
      6208.08119015
      4199.85913497
      3989.92082585
      3545.30427579
      3758.79242290
      8361.78873177
      -1256.49782856
      3672.59083304
      1484.51405748
      2331.53155574
      2430.22197133
      3485.42346754
      9697.73811851
      2849.14025301
      3961.68052911
      10041.38478764
      771.13568959
      -4233.87554618
      1888.21939595
      1689.44965622
      899.37615560
      -301.04156280
      -895.27918589
      346.01333452
      3035.88503198
      503.83985739
      205.75029945
      3222.25539974
      -632.69512528
      2370.12078426
      2920.93404520
      3861.91547638
      1534.38516736
      536.46426262
      -287.35663315
      3266.49052233
      1854.88541992
      -212.78579450
      721.41783824