<?xml version="1.0"?>
<VTKFile type= "UnstructuredGrid"  version= "0.1"  byte_order= "BigEndian">
<UnstructuredGrid>
<Piece NumberOfPoints="5123" NumberOfCells="5123">
<PointData Scalars="Pressure" Vectors="Velocity">
<DataArray type="Float32" Name="Pressures" format="ascii">
      -130.67777509
      -17240.43950191
      -23895.23714421
      -25493.28008765
      -24261.99582305
      -28560.32273856
      -29272.80775739
      544.29237880
      285.25207515
      -23569.16128140
      812.15969949
      -22140.43487678
      445.63542642
      442.57127542
      -20993.64946475
      823.26635553
      344.14211690
      -27025.94562458
      230.41526254
      -155.79350982
      170.65867665
      68.89720000
      244.20417961
      1667.89802915
      21.66946645
      390.73461174
      262.29193162
      153.91260172
      -378.43117320
      105.43227568
      376.08741246
      -278.17534793
      159.84863275
      -21.42367881
      -684.33525173
      89.27287649
      457.47498655
      162.71409475
      -392.11529378
      -99.86638531
      1247.75905395
      -920.29651763
      1043.94945923
      -314.76755126
      -944.71853328
      254.77221251
      465.23985098
      62.19062347
      -453.20442428
      536.39465248
      65.63699080
      -443.13462898
      1432.89922826
      -113.07202771
      -115.67024461
      977.23957020
      163.49015738
      -1145.42631936
      8041.64986871
      1537.52173998
      13755.99515645
      2689.12796198
      -2023.53926268
      780.42571143
      2860.43703003
      -545.53974703
      3514.88327106
      5389.50317142
      466.57485780
      1344.67616153
      744.52365121
      554.04406208
      1311.64420560
      1477.98208312
      534.04619778
      1539.07867961
      90.76428742
      1229.98073201
      194.03036366
      844.33002619
      45.79515032
      355.14235958
      1624.06077341
      351.88564115
      644.22224635
      262.46593894
      1353.78885485
      3337.81857897
      -638.27727191
      -1469.04994484
      667.18451518
      1182.58044066
      873.81632140
      -1939.34631674
      1919.16155983
      -7381.16941153
      670.62056645
      -3098.37508860
      -4333.14874479
      472.19725401
      -320.19299399
      -123.58025086
      -188.66643676
      -819.31878810
      284.25944797
      -16.29056241
      102.66399162
      31.64526297
      -609.39224320
      -272.07783458
      238.18079434
      400.56690847
      1583.99770035
      1292.86349180
      -799.58893324
      188.30727600
      -117.21393851
      -1924.06699940
      436.41421653
      1455.47282832
      1362.94003021
      -3969.18407508
      3499.81652590
      -172.78765468
      -947.33777898
      -5440.45446369
      965.17030378
      2712.74720582
      -15031.41948376
      -18201.46338947
      -13303.97501684
      4362.97137227
      -24148.52814249
      667.70299488
      721.11570726
      1070.85912717
      993.63796669
      3597.83939839
      2182.04599426
      504.05178027
      806.18269065
      907.03132440
      1149.85061077
      408.98301744
      -1068.21701695
      103.17374611
      59.90555424
      179.54825925
      -2287.61840373
      969.75006251
      513.96850884
      279.73598952
      1249.42444328
      -166.08331582
      977.67151716
      507.14987666
      766.81861800
      920.14734210
      -1798.45071073
      846.89002582
      2848.78320840
      -1117.29373411
      3733.04708073
      -4983.77667587
      1536.42441901
      -3563.32831851
      -258.43021445
      -1343.90597693
      995.23229899
      1619.51427255
      -651.91287203
      -353.36560904
      2277.21039063
      542.22718889
      -267.36472179
      -571.24768862
      -405.91365651
      -213.14626600
      -212.49333712
      -768.74330073
      -609.55393303
      -81.91796792
      57.41558867
      -418.32887274
      -1731.46747711
      3812.87758633
      4583.44175608
      4778.76534314
      1028.34696655
      2366.23574004
      4601.19218894
      378.47168602
      9150.65103541
      1857.11496313
      29423.52495449
      2290.66901467
      -6112.56788261
      4650.82275394
      -18716.99888393
      969.47810002
      876.62012791
      2206.41053108
      6518.92809542
      363.53400687
      5627.57773936
      2471.79223779
      2015.24465307
      -577.99077147
      2826.85083014
      3911.29382893
      1284.53306419
      7280.69484335
      1021.05126014
      1288.79668154
      2129.51119172
      222.01190347
      3222.95403645
      -779.86622690
      -14.53545364
      847.29402545
      1424.23128028
      -343.23572220
      750.10027915
      591.11359435
      -300.66994098
      143.35407845
      1679.43549415
      2140.50338785
      627.66330016
      1937.77725628
      1442.37305246
      987.78253992
      3287.03792328
      -520.59280368
      488.18851214
      552.76032112
      1394.10586185
      978.15648523
      -94.63249299
      -1097.78486684
      1314.59916672
      -1888.67862596
      1303.85660114
      -576.74542009
      2230.67746428
      -332.64389511
      -612.02317275
      845.21304846
      -4490.74990933
      2859.17270931
      4580.00770409
      -3223.93378962
      -4804.68333874
      -802.99965248
      833.09575189
      15040.53653363
      -9956.30218663
      8419.84297573
      -2770.51061929
      20938.08979282
      -2183.57335782
      -1347.68177373
      3254.66040503
      7670.73299718
      -27399.67254656
      2299.31427724
      4921.99113768
      3329.91373460
      1863.05139822
      2265.76912572
      454.47013371
      1336.57330994
      1659.81853619
      1032.88567017
      1739.34983121
      575.32909798
      581.19647286
      827.72712814
      337.35644185
      -238.26829079
      360.57830630
      1044.56161535
      2365.80380797
      175.28652981
      2883.40648429
      1497.63726748
      41.38964569
      614.94257174
      701.03751676
      624.04509262
      -280.01136072
      202.72318882
      -2456.33679007
      1224.08053229
      -1661.75152735
      -399.60985237
      -735.60370229
      628.10298319
      -315.05466004
      1155.76912797
      330.10772367
      475.40659212
      1302.82676256
      967.24072611
      1607.36709922
      1326.32538676
      -647.07671421
      586.39402212
      830.61306188
      292.67235005
      3097.26280994
      1180.93481544
      7812.42112164
      650.66872458
      291.56423290
      5335.42035474
      6012.66035259
      2465.05417563
      1633.75529247
      8752.13528659
      -1501.79646531
      -515.56542321
      63.48806382
      1314.26236767
      79.18715077
      -5402.01992262
      2386.58657224
      2029.26107828
      1501.63393258
      2499.87906057
      -20980.90566408
      3694.06855525
      1671.04741378
      887.34967552
      3735.34187805
      1699.92893919
      2110.74063761
      2687.34298910
      843.70477492
      718.83460110
      3378.03393335
      769.53608798
      1121.44385200
      2235.40556603
      2723.16515333
      3608.85088842
      1542.90175041
      2065.20423768
      807.69194063
      4599.35926132
      3599.23545743
      786.12846088
      585.77512223
      -1577.11115267
      3428.27508001
      3888.29164646
      -1217.51155542
      -195.22858007
      592.69648849
      689.00749939
      605.31677177
      -1209.06274143
      307.19567355
      772.94649324
      973.21353285
      -484.26133075
      -69.04910544
      65.26161777
      686.70000879
      1712.14702749
      1284.89932428
      2211.88154039
      2356.19894653
      1820.54119173
      611.47771395
      1294.24558765
      -1307.39838888
      -3930.34039114
      1575.93439141
      1596.22281676
      1273.28904271
      -4737.75872948
      -1047.68992433
      11416.82572439
      1133.31719693
      3527.78658463
      6084.94110298
      4990.91515433
      2593.49111240
      29201.42511989
      2289.45367933
      -3235.78421184
      2965.95723323
      3415.98352131
      3621.29938009
      10855.56098049
      1570.84306591
      5487.82599738
      1573.50679143
      4581.82665000
      4772.44497117
      -1831.78996132
      7412.32547714
      -1010.06015763
      2721.46910383
      5140.20891148
      -2902.95662968
      2220.12929521
      1408.83280533
      1390.62431537
      -2815.62814623
      -4148.26253799
      -16.68120723
      -581.78929067
      539.21713011
      1429.48020760
      -391.23394893
      307.75812128
      1393.02317888
      3277.71196928
      2284.11743002
      2446.16122218
      1004.81987089
      3440.42606335
      1868.31561994
      388.75291988
      3864.16539144
      597.88895204
      2556.76248605
      545.65254663
      789.19672444
      745.95701989
      2724.69933411
      1958.61749177
      4240.61727804
      4616.64445005
      4127.44949772
      2954.84318792
      243.24350340
      1466.93077923
      1408.33760559
      3549.83647622
      4162.52970367
      7021.40903842
      3868.05499458
      303.40214809
      2581.91432827
      664.92909706
      5169.65038314
      6590.35364952
      269.69763493
      7849.25490031
      3971.64267945
      10050.12722258
      -6390.70970304
      4669.32921239
      3981.30487881
      377.22975242
      3884.44438692
      -2683.88149746
      4137.47357317
      1564.86927899
      2486.10784016
      1059.90416613
      4476.31473978
      2269.44357225
      4284.08625325
      1406.28371055
      3805.46064279
      384.59553415
      4290.34982955
      2070.71654127
      5623.12151522
      4046.16048309
      880.36866244
      1998.51599169
      1650.96856735
      2309.75193641
      4901.92653108
      1538.70837853
      2776.92594553
      2302.83572357
      2464.41554633
      1887.09592651
      -560.34595685
      2259.27366174
      3534.28059303
      5185.48519136
      2498.95922542
      2808.43211438
      5283.09097866
      5340.43932909
      4182.20832946
      3430.90654439
      2610.05155343
      1611.00116866
      4793.78719603
      3294.86649915
      -1897.94676751
      1913.57164758
      4631.44264066
      1704.31002245
      4293.51080199
      6150.93033134
      4544.19232518
      3904.57747972
      676.69510479
      3259.81423380
      -1049.15946078
      2281.51875605
      -110.48997824
      -1295.69105082
      3796.38085861
      1102.84495557
      1573.19961770
      784.95236124
      700.65268195
      12640.35051172
      12101.49808890
      3357.94022641
      825.05802742
      1295.10919174
      -1135.54335462
      1126.51850165
      350.05357540
      504.15891320
      512.41491445
      3031.83126965
      -21336.21804100
      6355.94298849
      9979.05381012
      2260.88031047
      3244.45755889
      212.51856933
      4596.71103522
      2716.49832978
      3723.08185959
      2697.70984692
      958.55454023
      5865.54922071
      7410.10216054
      -206.46387483
      7965.39952802
      1535.57831914
      3443.35791567
      4828.46912328
      2577.46386284
      11804.29788208
      4294.93908331
      -2115.10983471
      9791.09014214
      3132.96412829
      3672.87777024
      10263.22469303
      7859.41561736
      5697.33361705
      1911.44607872
      2327.34721651
      12133.70626279
      1794.97190719
      3551.83589362
      5143.68032187
      6394.58407189
      -68.30418096
      3367.72150070
      -303.74372013
      2047.36067496
      2582.49666295
      1759.42097091
      4337.27057154
      1696.64793812
      7757.85574503
      6218.31676247
      -98.01292464
      -278.61991206
      449.57719097
      566.67157536
      -245.46159955
      1711.56333471
      2676.95325099
      5921.73550533
      8688.97250962
      -189.80741328
      3583.41769900
      2939.44348265
      3334.94132664
      539.68963893
      2254.57762998
      7837.55651890
      7198.05184652
      1283.70860636
      4660.33174935
      -602.80402564
      -759.02376722
      1629.94068877
      -16161.55176151
      1264.51637372
      -468.10483282
      2017.03766604
      3207.55918261
      -23.90704110
      1638.51881595
      5151.81195109
      3953.45572154
      7967.21480066
      5962.69592166
      3579.33045130
      5502.01114566
      3195.18411991
      4107.75705345
      3509.44421443
      6525.38686732
      6781.27195202
      6989.63029260
      -2822.48341790
      4848.13643948
      -1049.48641165
      3194.76977099
      2971.13775959
      2308.40231596
      2755.29440568
      -3156.63246398
      4730.37940482
      3285.73180697
      -1481.98592258
      -2296.15528075
      4834.21420098
      626.43882528
      7098.78722785
      3251.61252549
      5483.77687318
      3584.85463858
      2533.04922924
      6769.34557126
      1329.82654386
      7542.07945382
      4990.70335138
      948.10466441
      3364.84918357
      1289.36795050
      930.89305986
      1661.17219841
      1587.42383307
      1983.45766133
      1109.05622861
      8000.92935277
      11167.48344160
      6224.88344769
      4421.70469144
      3820.47665897
      2575.36059190
      6825.76772429
      1138.27382436
      871.50882811
      2895.48516723
      5232.97567104
      -3880.20633022
      2993.58403762
      483.00544460
      254.60814612
      -18378.22992136
      -5122.03323266
      1451.96416541
      4012.43476311
      4351.99563296
      3663.47236088
      7172.37121535
      4283.09172481
      5086.11052131
      1691.03549887
      2299.70529756
      8589.46291943
      7027.56271685
      13532.88336618
      7167.70693612
      2930.01445024
      4025.57013438
      2959.13312567
      5595.02869152
      1911.45755576
      2398.19545164
      2452.03754812
      1636.51458981
      3194.31153305
      1657.67374156
      4003.71624272
      339.67750101
      2669.27730798
      -371.42128427
      1914.78676565
      4346.42335873
      4060.12057105
      337.31328880
      3445.75175836
      -5899.86801000
      2781.65349432
      5028.77708683
      648.16212907
      5414.75263417
      -359.69227629
      1170.65359900
      182.04752375
      1852.72188255
      4949.81324841
      1805.81072645
      783.03798954
      7950.61251333
      4649.72577138
      3517.65721421
      -2949.25913273
      4429.71210188
      1347.68096119
      -549.34095352
      6665.66843660
      993.07831569
      4668.72847004
      718.00747328
      157.22258478
      2760.41781663
      1278.01262560
      3240.47732545
      6345.40424214
      -612.48731961
      1483.97544732
      629.10354008
      9867.71697092
      -15857.23209146
      2480.98407381
      5837.04116642
      9614.77220474
      3178.27051421
      17212.89337489
      4218.42161870
      10782.60008205
      6397.21760430
      13644.82685688
      21137.78984581
      7663.01943264
      13862.49835695
      5758.88570606
      4124.42973365
      1962.95712084
      6399.70940673
      4226.29063275
      -428.44321489
      1339.52940992
      632.97834715
      3313.36852742
      1449.48017961
      3052.09686775
      5190.66734989
      2401.76044739
      9054.23523514
      7184.91337658
      -235.75924171
      2066.98336922
      -4383.21633224
      1199.53469996
      4936.21412923
      6697.69668133
      6546.02389277
      3358.44865510
      573.80350321
      8835.69557882
      3442.65620365
      4040.24638442
      1003.25504796
      662.58776159
      2207.93314351
      7389.55233647
      3876.43750493
      2793.33595421
      672.99920713
      1111.40818445
      3137.00502594
      1582.92613909
      1975.51620223
      3795.85609640
      636.65702792
      4457.15465467
      -703.18394098
      2125.28965415
      223.14398525
      3500.49101235
      1857.38799773
      -38.23584643
      -13327.64543039
      367.83440212
      -1784.04391661
      2234.76993970
      -6199.61465217
      945.33303476
      -1242.14159519
      3350.84863295
      3163.32559400
      14618.49682867
      5918.89387701
      5433.89154742
      8087.78473625
      4184.34836936
      4072.83014788
      8649.53870579
      -396.85640293
      2249.93900840
      2066.56462755
      -1396.55304873
      7174.31947832
      2086.40681226
      2551.17404664
      1148.07750490
      2754.16410930
      2195.31364645
      2773.38169605
      2685.57124963
      3479.88060097
      -310.91670123
      1652.15812566
      1419.95247272
      1761.10978880
      2551.17260613
      5499.92549569
      6322.39884496
      3554.43682077
      3705.89986025
      2232.51651085
      6827.03872168
      4086.11147720
      4259.67376003
      418.36889505
      221.31967310
      -109.36987373
      5077.45335055
      1601.43968579
      1953.51921365
      2137.54935132
      3345.01544488
      657.34824522
      1752.36739586
      -171.20451104
      -4077.40237129
      5954.30897591
      2350.14345061
      4482.99101942
      -1387.90628007
      1658.09399172
      -1216.07132114
      2137.72827239
      -1862.25129140
      3178.31628642
      1827.28408490
      2529.90636217
      -1831.74416066
      1362.53282668
      4509.50446164
      3009.65217515
      9963.42721491
      2620.92051092
      -1518.57817416
      -7886.36499036
      3619.34305589
      4018.29497776
      7279.53639046
      3606.60918241
      3659.69648822
      5898.04913606
      7176.64314307
      14147.98782128
      5341.90362687
      9184.76468053
      2806.94225563
      2672.97789456
      4217.95576537
      2513.47706055
      4308.61569343
      2153.11041536
      3759.02842671
      2835.42178391
      1206.37248985
      338.16216243
      2423.53287268
      1056.13342236
      5484.33626169
      1915.97925858
      -221.17874275
      241.20107875
      2639.81302920
      -664.38501327
      5192.21157666
      3897.24169881
      3540.73252444
      3182.87845885
      4304.29964621
      -1357.08024359
      4585.84553692
      5008.84001140
      1354.03948599
      5947.45797035
      -296.50818425
      4042.43960546
      4355.06958199
      1288.97533262
      3985.08497530
      484.44524685
      128.90999197
      1468.46940675
      4409.96108383
      210.92699136
      -962.66695434
      1450.99317968
      1451.55207704
      2210.28624148
      -675.92225032
      2091.59520397
      4207.02272787
      1807.39410345
      3840.66944127
      1736.16982390
      -988.40755303
      6429.59460159
      -420.35885618
      2499.26021714
      828.70470530
      4244.80856085
      3665.32457945
      3305.55817965
      8051.92227549
      18294.67376555
      6258.25101148
      7879.18631799
      3125.73111367
      -993.13178437
      3602.26500235
      3204.46662636
      12.57573066
      4739.88985284
      2385.90910439
      8549.46417619
      2183.62586534
      2539.22746097
      511.58816912
      792.39317281
      3484.20248528
      994.90642743
      746.30162698
      1596.80199057
      521.75559204
      -133.06988595
      6305.03942782
      620.69530013
      5429.58215230
      1627.34807603
      2481.65956204
      3459.51207812
      3263.06990846
      2504.03833488
      465.73850265
      2739.54579711
      884.76459219
      2156.64366312
      2334.19687425
      3478.65986834
      1998.67732600
      2331.78796280
      982.99523964
      -474.18650601
      1256.52033998
      2868.42925098
      1036.83308871
      -140.11966755
      -3333.62881205
      1759.30324263
      854.87413510
      2851.17846356
      -2513.66892421
      -2584.76510993
      1136.17627746
      -262.47630729
      1036.92036891
      -1677.34916817
      3125.82770355
      5998.91582151
      2380.02576061
      -1433.06351818
      -842.03398209
      1067.56148192
      3457.31965811
      -7412.17558986
      -175.20647841
      4705.37991595
      -3634.22769720
      -28338.34729544
      13037.42364270
      3815.55853512
      4500.24731186
      9654.72867638
      3661.82098647
      3863.66170252
      11212.40872341
      2285.44905498
      3423.52325258
      8414.61197247
      8764.73051139
      3954.62150321
      2408.53769456
      978.11300557
      1160.63788975
      460.33724661
      3279.84595399
      701.70755766
      4849.96514481
      2615.93128701
      1676.94221439
      1176.53091053
      2565.30522297
      1775.67294738
      3670.78661394
      596.25645488
      4477.18680526
      3114.72794535
      1266.38117277
      1792.07751164
      971.63940490
      3700.74893815
      1761.18689748
      -1697.07616079
      2029.50298465
      -149.77709723
      2744.98557635
      973.19290213
      2755.44652069
      262.75061325
      -528.03396522
      3089.66382023
      3688.02343836
      1538.58948927
      2308.51766936
      1902.98215814
      435.29617114
      811.28271915
      384.64799484
      173.71980780
      -1543.78840213
      -142.13484065
      -959.06138829
      -1476.85342442
      5244.21758993
      -1251.01259452
      93.40770638
      1893.38848221
      4377.94422287
      2472.81793544
      -3729.31760895
      4369.50889305
      698.56472558
      12821.23229376
      -3907.10974984
      1788.94310558
      9173.00905072
      10775.75972819
      5762.83406597
      1083.19821517
      8226.42603795
      2491.79423258
      330.68748344
      4428.42812212
      1665.43204694
      3871.70961761
      1761.12248984
      3071.88755055
      1363.58512808
      1852.05097237
      1572.61646091
      1601.32183881
      2187.51092770
      698.27662593
      1529.30643049
      340.60232197
      1276.94024507
      1341.50605847
      1328.72569714
      1455.64189109
      607.06764616
      2932.58711042
      918.25289424
      777.94639012
      1534.64189164
      1484.87070194
      1851.49642871
      2825.76393884
      1592.63052310
      851.03431513
      1200.90326620
      135.40365000
      -650.60000614
      2719.66860825
      -3549.13125003
      1249.49119527
      1585.89069730
      -1408.42207518
      1111.22757332
      -2977.03338597
      922.12515908
      -792.37449371
      2074.03142110
      443.65999576
      2643.29928521
      848.52021375
      673.13363807
      2876.13785927
      -310.69678124
      2040.30120246
      -430.33033481
      -554.71662340
      2464.91134684
      -936.36665868
      1556.01286884
      4715.72948650
      -1841.52516679
      9265.54638727
      412.75099024
      -12896.66699707
      -953.19375578
      -149.92594710
      7737.37947554
      7524.16189879
      4861.40600347
      5571.41481937
      4685.51010135
      4056.38535958
      1515.29199223
      2156.66018183
      -5848.32289663
      2530.11215719
      922.40098537
      2048.61887218
      2647.20664584
      2820.34488739
      93.11138248
      458.94599501
      1393.43021973
      84.63464887
      1220.52505819
      303.59341724
      2075.64523184
      1266.22579582
      1810.96860011
      1930.42478631
      2560.90698332
      753.78243361
      1567.71152457
      2213.62932784
      699.15537938
      1050.72611548
      864.32095488
      1008.75586383
      -33.53044305
      679.61449787
      1442.94338126
      602.87333086
      662.48585482
      -1610.60213462
      -420.65222671
      -290.50177747
      -1594.09592002
      -550.21435869
      627.82255266
      145.09092495
      -1041.47796097
      -653.04541123
      2486.00193285
      3693.25818802
      3336.85799883
      1316.09214993
      1533.42610306
      835.97265114
      -214.83454789
      754.48532084
      -2740.31404629
      1258.19710848
      1814.84582551
      -5711.09079919
      8519.15664223
      8090.98004845
      4376.94516613
      1893.94391421
      2329.16201130
      2824.21850633
      1381.71777246
      -30962.88851667
      -5678.75686574
      2807.13464986
      11680.18298519
      6084.92138092
      2806.06868056
      3442.19601453
      266.18997371
      3300.96830899
      -501.65511288
      2163.66886964
      4741.62180445
      3541.59473678
      3515.52388737
      2962.31084721
      1888.47604862
      1954.00130471
      2071.21179531
      -554.95569123
      1101.24581058
      -34.06990297
      1654.57268878
      1643.03011020
      785.79889637
      431.39258510
      1940.20679948
      2235.11419224
      1940.39561734
      1952.45198224
      889.28294945
      1207.90880260
      1610.24721359
      1113.90395527
      1162.61540122
      1458.29313605
      429.78950820
      614.87912577
      203.51943406
      -190.22825599
      1011.67998584
      689.21332883
      -661.12973152
      -957.48992633
      1519.28182507
      1025.73736548
      -222.16734786
      2359.77106503
      79.87936534
      -779.08160515
      -2386.81385972
      2577.91848598
      -952.39833054
      -1022.80396256
      115.03357117
      4136.71463319
      1819.60704764
      13574.35160840
      -6056.41945330
      -5887.64571653
      4255.51826480
      9192.09860214
      10619.46617584
      3468.11272695
      2775.27068127
      6844.79678312
      379.66949965
      -19317.15986296
      3439.32525334
      4623.42498613
      6906.40239414
      3760.58484886
      7569.27700618
      -894.16359154
      16377.99321069
      1364.38798729
      2473.10582661
      4518.94981405
      5198.94901943
      -1144.93505578
      2881.15701886
      3319.99722202
      2282.89034981
      3225.05905560
      2873.10178918
      1804.45886208
      1396.71131632
      1118.13993484
      2961.51934079
      118.15385844
      410.22807134
      1886.99707849
      1336.17271791
      933.44740618
      2888.79857769
      492.92679385
      819.83572055
      1867.59206049
      1430.35613516
      2057.64713362
      2372.11817444
      3157.06124825
      745.56155151
      -569.64492229
      848.74608124
      1847.58036918
      461.85510054
      877.81510246
      964.78625611
      857.07600573
      761.87098639
      486.98481062
      990.98643327
      2401.48746381
      1224.73244910
      1309.31824659
      1274.53848965
      526.03956213
      -811.56288686
      -1016.86258439
      -4597.16596108
      1106.24200451
      402.69614992
      308.31312228
      16105.58284260
      10790.51760898
      2738.26372497
      1989.37126681
      8775.29948930
      6663.65072672
      7875.51607585
      341.94686061
      753.09552881
      3211.75720808
      2190.74201633
      8707.18160099
      2453.22015098
      4377.32256478
      2011.09298007
      -2359.90809108
      8677.62620479
      -3445.41771559
      2711.38063419
      5197.22769567
      2650.86765437
      2131.77407935
      1665.91674376
      4766.91926884
      1565.96373903
      5350.44636949
      550.28179252
      2330.97531185
      1693.28171153
      -3316.72813487
      3307.92377764
      2951.05244437
      1183.80116309
      1736.17756099
      1442.24809407
      3799.89001784
      4843.05967028
      3063.49422573
      1813.30795814
      3348.59296082
      340.44242739
      -342.97079175
      1422.72831569
      941.01719741
      1320.93099287
      924.02780588
      -378.52184633
      159.21803277
      -646.76454649
      919.55353510
      1987.37313570
      1086.78692354
      -1307.31128230
      -816.78469931
      1509.58949094
      -2098.87783555
      -278.20056329
      152.45767933
      1914.75290385
      1258.34361950
      3509.74549130
      -328.98752355
      678.14488802
      -543.57679470
      -1889.22943770
      12833.25210425
      -2151.13760846
      615.38204651
      -2848.40838052
      5940.77747472
      2542.78499227
      5724.56081866
      8710.75032257
      7040.39561223
      -3425.25159605
      683.42360095
      1351.07896724
      5138.27712805
      6141.27033465
      2002.34648116
      -2767.12948998
      8049.52747231
      2689.65628544
      5120.53808091
      2379.31360811
      2459.60674891
      863.25387261
      3345.13768859
      -3346.80641054
      872.65494430
      -2490.52019811
      13473.78672006
      -7295.89856301
      4145.68206731
      3789.03526180
      6065.34012638
      3775.91138866
      1432.02066924
      6138.34342650
      1527.98624635
      1158.89198473
      2614.45427531
      4578.20925500
      3573.97384235
      2251.35380589
      6027.87387667
      2148.21635087
      14.51060446
      330.62333266
      -417.14915791
      1484.60723146
      1395.69240977
      -497.49719555
      -232.41927058
      -332.51543824
      780.11813864
      131.57139117
      593.79184133
      141.26410007
      -1064.42188582
      -539.79736336
      168.47357539
      -142.67835061
      -1201.43261492
      -3315.48229893
      475.69513655
      902.19048511
      3914.78913994
      -572.09882976
      -1343.13158839
      -680.22840924
      3322.20272070
      5464.38735677
      7971.13029872
      7181.83736545
      9956.84629361
      3070.35808762
      1038.20771875
      2093.20904581
      3659.26311118
      -6838.97307711
      -40161.08078057
      9263.31434363
      2626.78024701
      3638.72408109
      4966.34359619
      2240.10068333
      5526.53600969
      2992.36214391
      230.42869440
      -2187.59243653
      16097.09043458
      2071.95148108
      -749.80685656
      5112.55309304
      3367.39068382
      694.90986454
      3717.73717631
      5322.47768968
      1294.01888474
      245.96066424
      -125.12714237
      2520.72892423
      4909.23909854
      -4118.49582934
      1263.71537105
      2851.10418567
      6036.01381244
      4630.03504771
      2078.36745450
      -2651.29474240
      4014.40518534
      1753.97715936
      967.50476967
      3398.94617397
      898.60186950
      3418.24427757
      4135.77421145
      3010.54842515
      4434.41619271