<?xml version="1.0"?>
<VTKFile type= "UnstructuredGrid"  version= "0.1"  byte_order= "BigEndian">
<UnstructuredGrid>
<Piece NumberOfPoints="5123" NumberOfCells="5123">
<PointData Scalars="Pressure" Vectors="Velocity">
<DataArray type="Float32" Name="Pressures" format="ascii">
      1128.78340012
      -16885.78021167
      -24324.33282004
      -25493.28008765
      -24261.99582305
      -28560.32273856
      -29272.80775739
      -55.40986870
      145.54916394
      -23569.16128140
      -238.20423276
      -22140.43487678
      1078.67697896
      696.07100288
      -20993.64946475
      389.49772572
      316.41242127
      -27025.94562458
      -89.32542189
      -204.91493405
      481.53396097
      212.96334590
      1002.00207658
      220.47034014
      -88.86597394
      2659.75443186
      3008.44259816
      -1461.49837298
      664.89008678
      -3919.46644371
      1801.06236907
      1145.07571603
      775.54050010
      3850.89281967
      1469.94899037
      15444.49725616
      7506.43180605
      3471.42155683
      11.10288001
      72.47222026
      4919.80194543
      -2378.00528405
      1842.15094255
      1654.30047399
      625.40785260
      10392.06879204
      3489.09767848
      7981.09970861
      -4613.23441772
      2322.54201246
      3501.55850661
      5250.52144328
      271.05848870
      3204.48420287
      -2447.18302741
      2301.66565829
      733.40113993
      599.89074968
      5595.43122791
      7388.56418836
      5372.01185660
      152.78004496
      1749.79124635
      1822.09377428
      -5383.37053499
      1883.08657646
      3961.24723952
      5389.50317142
      3409.76119218
      5251.34732918
      2911.47056514
      1425.03283114
      3452.98761714
      145.88358166
      58.34353074
      1842.51261422
      702.07633396
      2635.24701912
      121.73979839
      63.09512366
      -81.12645801
      4049.16405176
      172.66361240
      378.27752447
      644.22224635
      437.05143050
      2096.22917371
      1795.47046842
      1225.85069126
      -1454.43359278
      -3456.83771830
      4331.73455847
      2305.06276539
      899.00839628
      4962.62945232
      -236.01741459
      3265.37148596
      -203.44496825
      3147.44854846
      -4554.20160402
      7198.65359182
      12046.27759294
      -8745.30853907
      -516.57270901
      -111.71014447
      6737.37916386
      -1443.47559367
      -4434.40882758
      3775.68437168
      3058.97306628
      2076.56092021
      9618.55047907
      592.65762649
      9397.78910671
      2049.23877529
      -513.97591363
      -8083.62736568
      3589.03144079
      -217.63306679
      4782.05356775
      -2119.42091507
      4405.71817920
      1830.25762601
      3727.04538362
      -1880.44162713
      290.16710899
      38.75531366
      -63.17213211
      38.70681491
      3999.45180620
      -1.03990424
      2162.01685593
      -24148.52814249
      -305.05522709
      164.88705535
      1977.47912788
      1367.20426694
      5639.90278364
      3846.27456796
      210.99951764
      -1544.82286075
      195.94862758
      1617.26663808
      -720.12181070
      2606.24712759
      -869.36986352
      -1484.41132665
      2198.99277560
      -3340.68722923
      -824.10038313
      -1028.87786157
      -1597.45411748
      208.52436772
      1238.34491330
      529.45632851
      3607.69479928
      3308.69649508
      1906.90177775
      -714.94183638
      6355.21547992
      4406.50160780
      952.99142542
      3090.83568767
      409.74379735
      1482.60077677
      -89.70226028
      422.86947369
      424.30904027
      470.83228069
      -236.99874785
      4201.47682655
      793.39649647
      -6085.33409057
      2740.89121571
      5373.14628042
      -1092.99740929
      824.59909150
      5414.86295377
      852.59818337
      2590.66871708
      4989.36329575
      -1138.17403875
      -1702.61634224
      9352.25917068
      -2320.94104402
      -3527.42320855
      1392.08667834
      3502.38398521
      470.32821087
      3452.33303026
      -3234.06393926
      1584.94539344
      1024.35011322
      1817.89264982
      4619.79528475
      1058.40160572
      -3993.47306435
      2108.65281449
      -18716.99888393
      -769.97021249
      2068.32501578
      2092.76141815
      1829.20830162
      -2215.52931206
      7120.10006317
      1434.48200232
      2562.47261676
      2903.19807598
      6457.36071707
      1302.44566796
      4097.02259096
      3077.72562890
      5603.62921853
      509.22441105
      -1376.55815977
      2525.52430708
      -40.15059328
      -60.11525431
      739.74589615
      -780.65833428
      136.76883125
      2999.87991233
      4122.56895287
      4285.30975307
      2128.83515594
      -355.33899342
      1511.20357594
      5020.68700280
      3409.99260385
      5047.61481036
      -358.11163666
      -351.17237440
      4997.40869717
      6787.54703286
      1203.55226431
      1517.95975894
      1016.15599327
      4896.93960519
      -1331.48163196
      6378.48545594
      2145.13170514
      -3022.34238973
      1053.89051306
      6772.44448318
      2258.21162479
      783.86256305
      4688.04121822
      2395.39543913
      175.39056440
      1892.46370709
      2154.69637009
      2072.86283809
      5555.30058608
      -781.30777265
      1284.15006984
      -409.98981642
      4866.94823565
      1503.63532937
      665.12884549
      2434.80571969
      2292.84826026
      1465.67612128
      850.71500683
      135.22790935
      -27399.67254656
      3090.32641755
      2184.55953335
      2211.41546809
      4343.34610583
      2165.62633431
      3188.73608994
      -2410.88957773
      2251.53969624
      2186.10053986
      4393.01782679
      1024.94132925
      2604.31341304
      2352.86126814
      1507.91689320
      1065.94715170
      1245.61572458
      1359.03478995
      2357.65769205
      -13.74964464
      2828.61717690
      6747.03487222
      5130.25470430
      2251.80350299
      2187.66148597
      1052.02180308
      1660.00851987
      887.17699713
      870.96848329
      2395.26566940
      879.33541834
      80.49191443
      2605.14429171
      1256.09884560
      -303.44767811
      1366.76841265
      273.54078537
      1346.91458009
      2045.17275174
      543.36746190
      3233.81805314
      2586.12897826
      3265.26408095
      674.20670224
      -2091.63260097
      -1104.80018748
      87.01161923
      -801.96793325
      -433.47753979
      4107.73084871
      1210.53485548
      441.34686812
      1905.13615387
      1191.98520222
      2274.75150087
      97.54875763
      4362.74450639
      1008.52081358
      1895.71799495
      51.83924450
      4069.05392629
      2444.18849220
      2034.97196775
      1227.37077093
      -3251.23838568
      5103.63968076
      -20980.90566408
      5215.69822203
      8348.16319810
      5582.26463440
      4426.17515697
      2852.42895635
      4999.25251091
      6528.77871365
      2384.78153021
      1565.46870825
      10388.35064120
      799.58218841
      3428.06190780
      9517.20310281
      2543.74396540
      -1164.52240924
      912.53387854
      1269.84337128
      3247.04221137
      8699.19388132
      6975.45234569
      1963.53639981
      -996.69191463
      2112.16544426
      9908.27839272
      7075.84326919
      929.65020300
      2508.12301721
      549.12127019
      2803.95251848
      1281.31299889
      1324.92902693
      1037.25681829
      1077.67388207
      162.84115506
      2158.97448115
      1952.81012230
      3565.58794194
      2362.06708190
      3090.97193377
      3382.92096271
      6108.80056981
      5166.23259751
      1900.33997959
      1074.58163092
      5690.76221645
      3630.56740811
      -1201.64060421
      1929.29544358
      -270.95196574
      796.82025245
      3691.75994683
      7123.06027412
      -1498.62287074
      4073.74548065
      6815.66144033
      2146.36395063
      5366.21587575
      1321.34610384
      880.40420733
      999.64542046
      -2135.37626252
      386.30119007
      -534.65230062
      3764.81532218
      6779.66303343
      3447.13018552
      9586.03435858
      4453.96786493
      7884.49646831
      5766.80666681
      -3239.20971154
      10066.78042327
      9903.55735959
      7534.03197996
      10967.72215591
      1276.30748256
      16398.01060287
      4387.61285223
      442.76338883
      5788.51304515
      9689.19328577
      4937.33349889
      3915.66374781
      5822.34225308
      5171.37865459
      1832.72931709
      1376.46157814
      17086.48785318
      10884.67243692
      9692.28659846
      4704.11564285
      3800.56860881
      6115.34243442
      5246.48003293
      484.68379292
      5073.86049039
      644.06186206
      2606.45142643
      865.31304221
      5015.53475526
      489.38845047
      7031.61960684
      1743.47536849
      11157.36964686
      827.07988991
      3122.32519272
      6635.79687824
      1929.74812582
      2009.16275042
      358.64792642
      421.65119896
      749.44786828
      2503.91007807
      4145.41399515
      -568.68884645
      2205.38727416
      5453.03149062
      4469.13047534
      3319.17460527
      1897.48357268
      -280.51396186
      3422.42812114
      6770.24786610
      6087.02046597
      1502.64878163
      1237.90804639
      1044.68790781
      -1104.25378957
      4379.35759526
      2546.27552451
      3224.14822740
      6456.68218730
      4841.88913512
      11374.45295627
      8289.90103101
      13581.90573213
      11801.56104473
      7668.20868358
      6973.32610171
      244.25536824
      315.97965900
      8590.49951357
      695.38854092
      12636.18226623
      8850.29842017
      7489.40209674
      10015.63366553
      7486.31215027
      7354.20161264
      2295.38000849
      9966.13624279
      7761.18219182
      2824.14485732
      966.57477321
      6219.58137143
      7587.87235762
      4194.13018174
      2752.84158479
      4983.02930599
      4717.36618289
      5644.57100010
      4485.29639433
      1519.30091797
      7260.22571230
      4204.84023326
      4698.23038373
      2476.96976842
      -859.25618513
      1734.21733421
      3096.51715311
      1348.81873551
      9753.93553492
      6942.99694172
      1486.94768872
      1156.32380980
      1840.95879692
      1181.94463142
      2253.98952474
      7688.28713359
      3819.36605093
      577.54794818
      48.09524389
      6731.96354444
      3378.82149733
      4363.06783103
      13498.34157363
      982.53943634
      1251.01603733
      1198.45130313
      4225.79258735
      1957.51295504
      1024.27616063
      1181.43542494
      2880.74677713
      1012.86608260
      3084.57023337
      3936.03675650
      -21336.21804100
      7252.62195381
      6496.74703479
      -8960.71745565
      11353.60584302
      7029.35576158
      19095.45823157
      4179.20726566
      33522.69482669
      16951.79880495
      3330.32217218
      4592.57773859
      16402.20877852
      -2334.07917018
      23556.94725418
      2284.84498432
      3294.69135953
      5866.42507321
      5635.00614852
      11617.17437247
      11390.25527140
      1135.21825738
      6441.85877789
      6679.77486106
      10567.90263207
      4186.48711344
      3860.53647628
      3245.59346641
      1724.25805633
      6169.22083610
      1653.90312717
      471.21470004
      2066.06614246
      8311.15014052
      11612.05702118
      3443.74413995
      4363.83583222
      1164.58643086
      148.46675757
      8052.85787036
      2964.46277535
      1751.98125962
      6177.42957797
      1870.92195610
      1996.93990559
      3175.98760970
      3961.13695978
      1609.33884464
      497.01812390
      5661.88193875
      3000.73271548
      4457.08020403
      3601.75016309
      6366.75537744
      3128.22280454
      2175.08748642
      -845.06402110
      1884.58700939
      232.24682050
      4645.60250361
      -438.34661507
      1261.21839126
      165.51543844
      2524.45224201
      1822.28766993
      -73.34394948
      12668.61121082
      -16161.55176151
      1290.68990547
      6725.24751051
      6129.32074402
      9810.45563803
      2978.77544600
      6903.57201745
      10060.04148239
      3533.16259304
      10323.95695169
      11275.62197528
      3877.96077365
      4436.08267491
      5612.46827288
      5743.52157695
      5130.76827908
      6921.61611360
      1591.76717604
      4669.67504238
      6604.84842355
      7818.84901723
      2691.42486371
      3263.09224341
      2053.05458110
      5399.82422708
      3676.25485655
      484.23150383
      -879.94101046
      3705.30094989
      -473.64181061
      7637.23620344
      1184.53072482
      -1019.05012667
      14565.75983709
      4149.57950964
      4179.22716474
      869.61676276
      4018.84121732
      505.81421988
      95.72653016
      3283.45867842
      6266.81413398
      2190.26484431
      2029.78462920
      4075.13620008
      -3198.99739242
      -2366.28990512
      1759.72880328
      -2565.04493652
      -4871.53299944
      4563.99998137
      3862.07516565
      768.28287894
      1055.69934563
      2303.50161125
      1811.80850583
      5433.13856073
      487.00218953
      248.62253228
      -2527.54172108
      -1374.74474035
      -3676.01521384
      -2640.62533382
      1957.93381503
      1223.58736181
      -18378.22992136
      -5122.03323266
      8380.40917901
      3114.70647234
      10374.77236041
      5614.49468140
      17638.60076551
      5786.39370473
      11237.68762466
      5125.48023528
      3154.70574735
      7144.19434926
      5679.75390830
      31639.33083688
      6413.62891051
      6550.11122306
      -2370.43224457
      4506.62979762
      3319.82850765
      270.58198373
      1605.91052798
      1270.33622134
      6119.20983120
      759.42860001
      968.32402076
      1826.50449391
      -133.05771367
      -33.95763116
      32.95413300
      168.80812705
      1612.28024056
      2945.89152149
      5113.62818267
      2265.00580845
      851.85831424
      3510.35878735
      4166.46538076
      2494.14663039
      -1871.89076720
      20.59427292
      5770.26616431
      -1282.52985600
      2717.12694750
      3424.44407032
      3703.12979752
      -25.85507988
      3519.09296964
      3146.96922309
      3066.03630709
      1465.39877533
      944.36725545
      1561.73134373
      1024.36680737
      -1000.27879016
      1783.23216065
      -871.63540086
      3008.91774351
      -237.02949360
      1849.67983131
      2409.03442923
      255.85645527
      909.80757358
      -2185.23221876
      318.91645100
      825.42092207
      88.74012707
      -15857.23209146
      -6059.83646476
      12865.63129847
      9902.63253816
      7254.19789423
      10634.64749140
      9170.93266901
      11982.65803669
      3578.95949983
      11005.50320316
      20333.66521200
      9134.74446838
      6078.24632307
      8539.29682045
      3439.16083526
      5448.30403334
      1768.41553053
      4317.10628850
      1306.76519291
      999.03868129
      1556.73263479
      3751.30395747
      1993.71133343
      366.59652291
      1489.36054671
      -1329.15680457
      585.63132348
      1631.36761555
      791.77772777
      1901.37182532
      -973.34838621
      1057.40648560
      2999.26393590
      2619.13640617
      6568.51706480
      2432.00163467
      1568.95824493
      4435.80686634
      848.63898031
      1497.27414841
      567.53425173
      1671.16064383
      -461.66222706
      2458.73659380
      4103.01905908
      6294.58920905
      726.20704913
      -234.86929693
      -2130.02849587
      4808.69040130
      627.82912670
      2332.80094370
      -437.73518587
      2032.59184494
      -1713.49595252
      -239.82400014
      621.71807795
      2711.59983999
      1958.83465177
      6137.04699610
      4452.87130738
      5291.97425043
      159.27144090
      1496.79644390
      124.60590039
      1898.36711617
      -12575.05168018
      7080.96256479
      18660.91031166
      9769.78591735
      6753.97423836
      2226.83488132
      3154.54288569
      9877.80122865
      7508.55813733
      4278.34447852
      2055.57926555
      3175.12785207
      1373.67472749
      3250.48053771
      2161.71743338
      1131.15893528
      2327.49648314
      -355.35567072
      1391.63068479
      2315.99905624
      1895.02394245
      1967.12758227
      842.21688467
      1892.78953071
      1296.15412652
      2995.70325749
      3340.04752632
      1217.66654106
      545.71569498
      3253.51972680
      4066.36484047
      1038.96912164
      1852.39350915
      2426.56928269
      3667.38980215
      2385.19208897
      1120.27500708
      312.50428029
      1444.31877447
      590.08079075
      -1370.51174123
      -1071.74288518
      3023.99097776
      -1614.04232399
      845.14045661
      4299.92254019
      1947.68670967
      -540.95711206
      4465.90491641
      722.78938011
      741.43330917
      2082.71384405
      2054.87902880
      598.24830124
      263.11785952
      1235.91113802
      1605.02222798
      857.90258809
      2427.31038313
      2399.24555461
      3216.25646764
      1586.43377112
      2228.82874951
      5811.29820624
      3629.46578988
      -498.70997739
      -7886.36499036
      3050.87966150
      -4270.67721576
      8454.09263320
      11786.32096343
      2101.13751220
      3737.64216644
      15640.41495090
      2308.09799621
      2844.26870292
      2157.83885612
      2081.75550487
      458.47216323
      3369.11026817
      2504.88631857
      627.46878459
      795.63694119
      -313.28218967
      -1339.53455650
      2166.00284268
      1386.20369320
      4113.55760265
      1127.01675520
      1209.37201625
      -2906.80569845
      1493.58353708
      1852.95736401
      966.97139665
      539.50587041
      5525.05638214
      710.18202351
      2722.32276377
      1997.16383294
      -80.13013481
      818.15699467
      2820.38232214
      6345.54190303
      715.21277273
      2422.71741400
      1962.41177217
      2480.65332473
      5441.17006681
      5323.30249287
      2225.81891434
      631.70211829
      1544.93125327
      3062.05623210
      1361.08781074
      -4258.35248547
      -668.02048201
      -901.52600610
      -2915.74350328
      -1490.46070699
      334.67966432
      1761.71661438
      174.28244175
      1989.57201596
      661.24053085
      633.05173485
      3905.88184986
      -725.49236095
      1034.88125991
      1878.25872045
      5928.32887007
      749.52544278
      -715.16892343
      27243.86380923
      23926.88810646
      18671.52974652
      4097.53133793
      11755.76890751
      3151.84331866
      2956.70938990
      5151.42144426
      3345.38326678
      2148.11041323
      876.27453078
      3891.68915080
      1442.79245736
      1029.57087465
      887.08276925
      1869.17615596
      2146.08331613
      393.79779686
      1500.65768559
      1083.63282838
      2318.71902905
      436.52660287
      2340.04630270
      5908.17836541
      1040.97237718
      3102.08811175
      -385.79870951
      990.06349644
      3605.40504214
      77.82728481
      1697.00236983
      622.37658566
      1387.09715366
      2635.18236842
      1983.98511204
      2444.24373490
      1887.68318890
      913.59999505
      2577.86153921
      1898.15776778
      944.24436572
      -2076.41823430
      1052.64919619
      1200.58859013
      -1757.73597094
      -1128.08751364
      -656.47787197
      1515.13047535
      1130.15122774
      151.26047172
      29.91921059
      909.61685622
      2373.09368954
      -1293.76010503
      1883.66036148
      -1493.15270271
      -1060.36459409
      5433.16103535
      1865.61099794
      559.22097227
      1704.47326932
      232.87429586
      489.86743278
      1596.12305576
      1532.55100765
      -4200.06906208
      -28338.34729544
      7162.03129868
      5257.10248127
      5088.30333834
      4009.53677624
      7398.89679592
      2600.94206430
      2548.12828799
      8189.30257691
      3172.51251874
      6327.22083418
      7345.84843532
      3071.47188513
      -317.75316168
      4762.79708758
      1141.39139148
      334.13381627
      216.90767867
      437.08446589
      1857.43362507
      1078.13487979
      1395.07512472
      1461.61921431
      487.79453912
      1359.89455302
      7101.74971654
      2703.17054367
      32.96552951
      -613.49805214
      4639.37550148
      -3148.00648946
      2449.64843399
      2100.55568919
      -5918.21329474
      -1308.74056439
      -139.30899859
      1335.14388542
      -1871.95649067
      29.12954173
      -484.75573497
      3329.03476780
      2773.45767289
      1427.55895531
      1341.96734678
      1534.95335411
      3325.78481219
      4257.47451184
      -645.35506986
      746.39428103
      279.19773552
      813.02621896
      1379.92542297
      -1484.18697419
      2259.16302626
      396.52760180
      2509.92492213
      1914.13174267
      1592.00321764
      1691.59739637
      2592.82557469
      -1980.97745470
      -936.27722195
      1064.09783451
      8725.37387932
      4937.93486744
      -2509.98066045
      10940.21684210
      927.34144019
      5028.35044747
      4281.86470049
      3711.74102512
      1648.72740783
      3619.14752385
      4829.17023928
      1910.76667570
      -856.33780591
      810.58165135
      4532.94935825
      2948.27697234
      3121.35845958
      1437.41578983
      124.39587294
      2117.04040941
      2527.48638895
      1431.74274160
      1489.65666228
      2070.18072592
      2512.69971817
      2883.87160728
      1602.58973847
      2206.36587492
      4018.87778145
      2536.54965326
      1283.82238714
      1845.01000016
      1508.27974242
      2265.88980608
      1488.76723396
      2098.40282527
      -856.35348924
      1776.20824625
      -279.54823346
      2207.61818185
      5518.22093064
      830.59678614
      823.70554620
      284.64158374
      -1130.89473809
      -128.79268057
      -2045.24251857
      -340.85519031
      807.02152943
      -447.42014111
      1060.46121385
      -211.46038410
      4219.18888931
      3555.61950209
      2372.27667542
      616.70226899
      -1390.30962674
      630.41368161
      1402.23464080
      -1494.21120474
      1270.15432829
      240.27776621
      -283.83482227
      -2250.92335002
      5078.43631818
      2981.66613619
      8194.77003758
      3430.58410831
      6503.89416536
      4153.86775728
      2006.48893010
      6196.63255128
      5186.77798571
      3939.97240429
      3249.57375965
      2342.02953511
      -425.20795787
      1523.30391491
      2128.07689574
      2313.69150235
      522.60909159
      1521.97827556
      1117.30670386
      1706.57257994
      942.74924624
      2073.24653664
      1223.58425245
      -299.99550336
      141.73763129
      2202.90252044
      2076.62907927
      -1034.82534230
      159.68186757
      4729.32554106
      3026.33896255
      3386.36317942
      5103.74602837
      1751.16564874
      1300.87874616
      3006.38872857
      42.97936719
      812.66417020
      97.38706417
      466.80010702
      3679.09786775
      44.48124448
      -788.80098420
      54.73996991
      -1682.94449460
      1922.50567968
      4192.63111117
      -379.02829972
      13.88969403
      -1027.20765896
      -264.52349167
      -91.55944496
      -1831.78426297
      -2228.76076483
      1664.80205260
      626.52237201
      978.32315144
      2457.00477530
      111.66562034
      1332.59751036
      3729.74603326
      -1473.73298973
      -17.53118715
      7349.61530648
      1319.17334307
      7320.98086143
      1580.98658278
      3158.52831587
      5454.52669574
      2027.16702012
      -1411.41830761
      -30962.88851667
      -5678.75686574
      6082.08337468
      4536.93260302
      2306.36090583
      142.48688596
      2809.42553967
      -221.71735077
      1972.20583782
      6947.74752738
      1844.25503013
      2922.40610677
      3298.90509117
      4100.52859386
      1425.37642643
      3485.94584683
      1704.65596793
      248.61845383
      899.88312268
      3059.04212678
      993.03651027
      818.06023548
      2271.35065483
      -40.47433753
      1711.21535909
      2403.03191905
      2660.68206854
      4144.62964773
      4090.13987029
      340.22744718
      -914.32495183
      -5204.91059400
      28.94159204
      -2880.19258474
      5663.11468331
      552.92376165
      -78.17256593
      -397.28227696
      -3282.36579299
      505.85991842
      79.77532679
      717.05055505
      1134.10790946
      1987.36883153
      544.76958873
      -1191.19843345
      859.00949907
      912.51857575
      -2562.99155804
      3993.97535657
      820.41870509
      -570.26089678
      3295.47623260
      -0.33063657
      528.36122150
      552.89022197
      3261.97439440
      3637.94037461
      400.74472716
      -279.70514936
      3213.19070970
      2977.92703101
      4734.50276124
      2949.05748195
      2877.53994090
      -7684.46843681
      -19317.15986296
      3439.32525334
      5759.08014204
      627.29237707
      829.61638552
      3459.70709242
      3497.10405056
      2431.04461097
      4183.03372623
      3772.46387305
      6693.41308720
      3260.24778710
      767.80058029
      1269.00773842
      1773.71511361
      2606.71391952
      2281.93314901
      1598.71382120
      841.23863230
      850.20363878
      2495.10840530
      2206.16168808
      763.24935851
      298.71006264
      2445.12258967
      1751.86140043
      -816.03970768
      972.09163318
      199.78096488
      1755.09379180
      471.67820766
      -1320.16391778
      457.59324187
      2364.14448131
      1916.74857613
      2785.23557294
      -68.61859703
      396.56581243
      3474.58080300
      1091.19891974
      2307.83056832
      4197.73840975
      -183.10879360
      1693.42981130
      -244.05346742
      1285.53087579
      392.09659303
      -1106.32415919
      2006.23939853
      -176.09862937
      -516.79717149
      477.43324755
      -518.18800941
      -1518.68125053
      1496.42153018
      -1436.79700254
      1261.54548029
      1059.19629697
      2774.52156628
      3800.67377952
      1965.98980632
      4649.31846586
      3483.49988049
      1519.58129554
      1531.18867599
      -489.53768833
      3211.75720808
      1009.27610082
      9501.02654633
      4387.36463733
      3425.09701134
      773.50550413
      4887.59038328
      2086.15749846
      2000.26904683
      980.39624274
      1863.65719412
      2597.84652814
      86.56208420
      5470.97630034
      3307.70801230
      961.86917071
      934.92214933
      1420.24383150
      1416.15220752
      -25.22534138
      1030.73098048
      424.96304703
      1209.28123321
      1010.89075392
      1255.10009242
      1739.29807470
      5262.51881587
      692.59911310
      1907.89016190
      -1899.94182162
      1073.86903506
      -34.47458895
      64.46930235
      1795.61504422
      234.59917215
      3480.36421690
      4401.51420868
      -868.17323696
      3010.42129296
      -1864.02688470
      1567.43170996
      1625.64724483
      2877.81196772
      14.89177506
      921.51177607
      1873.31565035
      671.05808679
      939.55529888
      1680.56962202
      2820.10791116
      -2050.54096959
      1067.58500970
      641.32214585
      266.21946191
      152.72119377
      2043.77888824
      538.24869516
      -1876.50288688
      3.68925375
      2152.78572564
      1483.45705044
      1944.79243916
      5378.08012488
      5511.76262946
      7361.73079602
      -2584.80772740
      4023.49720021
      1351.07896724
      2203.32990454
      1776.80535444
      3597.47342477
      3106.91581447
      3067.67964827
      3733.90615920
      4671.14694288
      2517.11773645
      2363.37381587
      973.99260960
      601.65682686
      2868.53207147
      732.74652134
      -1115.01562148
      427.68567614
      -398.06391018
      1349.07878106
      792.64069666
      814.57443699
      1675.56258602
      1780.01639561
      830.65040934
      3817.01211404
      1005.59411144
      1065.53556136
      2102.37079918
      1170.04933928
      1485.86318768
      1451.55867832
      661.02998783
      1812.68665236
      2550.11024664
      -295.32593072
      1086.15924381
      235.37408419
      -121.21569911
      -528.67197663
      497.06331329
      -103.88508401
      -18.48993100
      -829.31073442
      -2185.14673035
      241.96025160
      286.57434118
      385.21351155
      -323.98292269
      -82.50146108
      -750.53237128
      164.97411120
      -1607.09692172
      1449.87742359
      -1835.90268994
      -1778.51951785
      -774.47588791
      -322.46817776
      158.24459884
      1003.12709714
      -1884.44496432
      3150.60702245
      2879.00812631
      1569.79197376
      4286.61224061
      1218.81296665
      778.81806660
      -40161.08078057
      7372.13559459
      5417.47232523
      3839.27896832
      1249.55190824
      1664.70709989
      1750.84414478
      3817.01960567
      64.07036473
      657.72486516
      2499.02959500
      1684.98179841
      1450.99920548
      4607.55081235
      2959.79810632
      1429.33852790
      1819.77481086
      1588.78108387
      1143.16163072
      597.90435316
      1208.68410028
      1389.22087946
      2026.88643685
      -97.07097517
      1434.75700833
      1062.56647129
      3687.75072460
      1064.21975444
      711.80442023
      627.42743333
      1605.47552180
      510.57251540
      608.18297625
      1435.66266351
      1238.39313007
      2220.82376392
      1457.71430454
      2267.13044550
      -1918.09968477