<?xml version="1.0"?>
<VTKFile type= "UnstructuredGrid"  version= "0.1"  byte_order= "BigEndian">
<UnstructuredGrid>
<Piece NumberOfPoints="5123" NumberOfCells="5123">
<PointData Scalars="Pressure" Vectors="Velocity">
<DataArray type="Float32" Name="Pressures" format="ascii">
      -2003.00839906
      -21864.93657542
      -28454.38066834
      -25493.28008765
      -24261.99582305
      -28560.32273856
      -29272.80775739
      3144.82309796
      4770.01603703
      -23569.16128140
      1311.73254659
      -22140.43487678
      5676.84123151
      91427.00294687
      -20993.64946475
      1926.18666376
      20186.18211781
      -27025.94562458
      24816.93282515
      4849.42544460
      5925.74534544
      21396.86113575
      8663.21297078
      3915.82518991
      13479.64678923
      2112.00320355
      32550.44107062
      27261.36599417
      12536.66825849
      23597.58253572
      20050.00086972
      8739.71523750
      -17307.41961856
      3336.22508348
      3275.30455638
      6606.72212252
      22846.35222442
      -23238.88333008
      50603.27958730
      -1821.71937660
      5627.09326991
      -5839.20366496
      4113.99643903
      7163.49745711
      -506.78559802
      15101.23054602
      -3220.11934916
      18001.82667431
      5675.07409280
      3679.75291601
      4067.62226225
      17175.99343774
      -820.30855026
      8346.28015249
      -1911.63065593
      -3700.40454124
      -2128.77388887
      6784.17658140
      15180.23605973
      4150.53097343
      7841.48908774
      1258.85199339
      -11040.37240902
      -3601.27249509
      54.82553179
      -738.70686266
      12004.01923431
      5389.50317142
      5524.23918452
      49566.66561850
      4728.15776738
      3736.92255266
      11712.44962486
      8123.58640782
      58.34353074
      6285.09920504
      1347.66831853
      2635.24701912
      1052.14574969
      3908.10810337
      1197.68836159
      1609.75343698
      1763.45667336
      1419.97625670
      644.22224635
      1378.74438681
      3737.86349724
      2992.68298076
      16977.16714996
      6937.72332368
      2651.01449522
      4093.58334897
      1360.27511144
      7920.33313065
      867.49044643
      1477.17531153
      18218.34049008
      11817.02417071
      1212.46792706
      5933.36338938
      7952.63641360
      5937.08604184
      -2270.17219088
      1614.45084910
      6915.58622573
      8136.87693329
      11544.10810251
      1418.41955061
      -8143.13718117
      3563.56757342
      9605.10987335
      16752.37318073
      5640.35038211
      8439.33374406
      1457.05381814
      2795.29115935
      -992.59421054
      2843.02071678
      1127.11353426
      -6285.10896732
      5568.10462178
      7323.99441318
      -5660.04142268
      6453.41342232
      2268.54105759
      -5019.37868978
      10621.10184780
      850.82289845
      -6535.17649542
      694.36411340
      5952.05357047
      3272.15530132
      -24148.52814249
      4436.16910370
      4534.16246292
      10496.21532395
      5739.06695204
      12839.33629075
      24291.69961387
      4083.00817761
      -1544.82286075
      1843.73272739
      7691.72157416
      4093.38799436
      4782.14669684
      7907.15815002
      3973.62126327
      5565.00070204
      1921.13106308
      4486.83498146
      3545.75374422
      1773.07419674
      1135.70850105
      1199.90490959
      4012.32762065
      10321.59581100
      6701.91423115
      1610.50251544
      2208.13861343
      3775.35990616
      3212.09214102
      3502.44186547
      1475.76243200
      2596.02876922
      10499.29676821
      532.46893464
      4297.12362202
      9288.15232901
      2973.43926601
      2953.25257140
      7086.60516635
      8454.54467074
      5497.92813321
      1241.16421167
      7488.18638967
      1652.45311222
      273.65685170
      -3865.69248353
      -5146.31547611
      2012.60430323
      -2181.60966101
      -2189.93035257
      13004.45968302
      4700.26863234
      -2552.71057515
      1552.30426219
      -390.50411614
      -97.18025852
      4132.46871510
      8972.09973776
      3156.41714174
      -910.15974704
      -1987.04654577
      6358.69853130
      5052.07607115
      788.52087050
      -1986.82646339
      4683.87387658
      -18716.99888393
      5937.27891451
      23286.44887213
      10209.92081699
      18042.60361094
      2946.03983371
      7350.98876097
      12037.11198604
      4320.65226124
      -171.55830128
      5727.97183818
      10273.67372152
      9624.39206728
      9643.82574133
      11219.40066358
      5829.22632275
      4154.18887311
      2936.28204455
      8505.01066880
      4253.35674953
      3513.15956305
      1991.92250794
      1811.20712997
      -310.78133819
      2862.12677353
      4321.61446828
      3067.60982283
      3045.27357742
      12.63220590
      15066.25021623
      18791.23902964
      13722.60500375
      4070.14459719
      5676.71391431
      8140.10875728
      4929.32249980
      4637.66993748
      1121.69358734
      1217.45347938
      -2617.39368949
      426.83367803
      -200.33891491
      2933.10341602
      -3375.20922525
      7353.96196704
      9905.75788892
      5964.09557180
      663.60331300
      928.64553949
      616.80981061
      2689.30102616
      -1459.59105412
      1788.91926081
      1569.32173492
      3726.05769457
      2419.34730436
      8009.59421916
      2507.80863238
      5593.87639058
      1297.54303893
      1124.37834633
      1074.60067622
      7248.70081709
      2521.29954811
      3189.45925822
      -1056.47435187
      -27399.67254656
      21194.80989229
      2900.57070728
      8408.68144464
      3276.16907888
      9307.67194623
      13202.27251512
      2944.39086073
      8850.62488868
      7527.74600032
      3554.59664547
      5086.59076864
      3573.22871799
      8134.87557185
      5828.02650546
      2986.89851823
      3477.87174719
      3525.08721967
      1719.33088912
      4849.70902828
      3366.58158753
      5160.31307548
      5189.49483615
      9471.60591243
      1205.71650502
      1511.73934162
      3184.09749915
      -2356.73826232
      2675.35417680
      4037.99041506
      1598.85335219
      -22.19678092
      1590.42520666
      1604.51589279
      292.34495438
      2096.42401454
      455.49766680
      769.63510541
      2262.56102187
      3061.47792696
      2874.94628958
      1762.23830556
      2845.79254593
      130.88797232
      2504.77549915
      1814.94224202
      -370.13949929
      1229.46854060
      480.67022097
      5639.13841029
      2283.81650866
      1354.12965489
      2038.36501634
      1711.46130986
      3361.11213616
      1259.52456163
      5481.12664517
      167.45988716
      872.87719342
      513.87641523
      1185.00457724
      2581.63723221
      3067.18172348
      1442.12497557
      502.29962812
      3207.59166101
      -20980.90566408
      9090.21548889
      7227.23258076
      8019.81222983
      13691.22503296
      12498.06572523
      9038.50796788
      12633.54075421
      5292.12222609
      8485.02454147
      8101.49845395
      2091.58894503
      2143.78095058
      10184.43028038
      14471.71058728
      8692.54740589
      6226.45387732
      3570.22214969
      2735.54915082
      10245.68952896
      4821.05874435
      3181.64528597
      3303.39439629
      348.71439517
      650.61116052
      7272.48598149
      3704.46747009
      1928.25540482
      -171.24612709
      3350.27595972
      2668.88468161
      1009.68812849
      896.31081482
      737.85827177
      994.95407855
      5294.67723015
      801.60452373
      1361.18809586
      -27.84174865
      1269.55910039
      3205.19440329
      3361.13660864
      6789.97003739
      1437.42350674
      2459.76650308
      6740.97048279
      1257.41962561
      6597.76449564
      1938.56006487
      3451.92367720
      2251.82100443
      3209.42223536
      6279.16987780
      1400.60044561
      1412.91659130
      3945.81679285
      1105.48440670
      4773.72290263
      1200.86530307
      3234.37127166
      4334.52930006
      1730.90885881
      489.91965688
      -3343.51790066
      1885.82317318
      2587.81990334
      5887.38423814
      16777.30131672
      11747.65531029
      18931.72677449
      25898.31841129
      32232.10998639
      5951.90389813
      9849.97170379
      4586.88250965
      6270.02280410
      6757.02748675
      12008.28328715
      5619.18703593
      2617.91102837
      5390.95599739
      4084.09988414
      9712.06741766
      4701.68037414
      -1647.63271350
      284.34081776
      2798.72791141
      3630.15465482
      16389.22267250
      15425.69667179
      6693.60380434
      3027.35077124
      1487.38653932
      1910.92594050
      7031.62205935
      -135.82066375
      6985.59794802
      1043.84298408
      3512.38314865
      2998.09908683
      1095.96103954
      57.94575217
      7855.02112849
      2055.00990360
      9662.77359439
      2672.10072380
      1362.04965991
      1218.93192068
      1636.07860430
      3296.81451590
      3683.37725772
      3076.30472189
      -921.64175258
      1221.44593096
      6075.09893611
      -1681.81112703
      2904.02248547
      1944.99834455
      -185.11416153
      7929.65487155
      723.49979199
      908.97999079
      -87.18823137
      11367.35161857
      5551.82453582
      1268.06842301
      3034.42490668
      616.07047733
      1049.37524002
      1421.56359670
      649.96593207
      2899.76442147
      24085.11530648
      8422.41764023
      15225.51523587
      250.99793676
      22486.75422672
      8906.84499090
      6927.28292781
      267.79868568
      15531.15560475
      6550.53469302
      2025.19366428
      10855.36222441
      13580.37400926
      5922.26539262
      3731.42391265
      8372.60936350
      8742.43625062
      15778.30130715
      -1439.87617836
      7919.35616441
      5203.24922844
      4802.93320517
      2376.79557178
      1664.97018638
      7579.56288577
      3019.96836575
      3234.08022218
      7812.71253007
      3291.13126059
      2160.04396288
      4777.93924404
      1590.80435110
      3670.80210125
      18.16026046
      -203.99236912
      2330.46738762
      3653.65528079
      4131.51187061
      3826.12702405
      -789.32030160
      -3516.48161156
      -905.10562847
      4558.92004204
      1421.34370300
      7080.88570535
      916.29523224
      613.99980132
      686.66174768
      898.96440805
      1199.83923342
      511.18457867
      1796.05576420
      894.20472712
      1774.42821574
      1813.09636365
      6169.01877291
      3710.04398472
      2956.89685308
      4527.35982573
      2641.36314921
      -3084.06522312
      2116.50969713
      1104.86218891
      -1940.54398406
      613.84819159
      4072.39476698
      -21336.21804100
      11422.23504442
      15762.03707569
      -9143.89250015
      7650.29106958
      6536.62849957
      -2023.58589369
      9066.91055936
      10319.61810476
      5322.47374243
      2243.36076527
      6798.86573106
      16910.95927497
      9809.38159778
      2331.44688707
      4591.43499444
      3497.88867415
      1128.28730169
      1485.22917703
      12380.88576699
      4090.60606304
      -75.14324853
      8348.44561346
      6373.10967518
      10632.86343657
      4186.05371997
      11484.05965209
      -443.22462913
      -67.79770809
      6422.16918935
      7565.05395009
      1362.32919074
      4016.97358770
      2202.44994333
      16828.39132233
      1116.21704296
      2574.34841996
      -1446.33936811
      914.88939754
      4407.14778025
      853.74481985
      1423.48501181
      3533.29157511
      4370.85285165
      4237.35150849
      4431.52771784
      -1822.03657826
      2772.30450096
      1347.93762646
      4237.70974913
      5826.72771006
      2256.05865328
      3460.55657429
      4448.63615287
      2559.01312893
      4081.03703016
      -240.33115603
      4716.19917303
      851.07586764
      -949.18999518
      -2504.14533616
      481.44855142
      1623.28053059
      1997.07810418
      543.61117283
      2533.78566598
      -711.87900177
      -16161.55176151
      20596.41243280
      -9714.70887614
      1394.54200176
      -9891.80857873
      4842.37310117
      9841.00631650
      8928.85499362
      9276.07107746
      6700.46551495
      5262.09314501
      2406.06224441
      2535.49156657
      3501.48906483
      4648.96670337
      2584.09985133
      3182.24227296
      14342.93348051
      2113.03803381
      3775.67821835
      2603.97889084
      1083.55076224
      3078.85152247
      975.38007926
      2737.23575079
      1934.18079005
      2009.31552539
      943.71675464
      1621.60385744
      1836.69015354
      1851.99968432
      1237.83767339
      2151.53765263
      2488.32188756
      4723.09754833
      -2328.74271077
      776.23646698
      3133.76435126
      961.68295992
      -1848.75142378
      2599.72404667
      1499.61127370
      -178.88527496
      2597.67523196
      4624.53279754
      765.85929442
      -361.86470510
      -847.11102963
      408.36048175
      3962.70791754
      -514.01045705
      1508.92213019
      3962.52643508
      1656.02315525
      1974.06673585
      3459.23983434
      1832.49062094
      555.94198398
      1955.63061766
      -653.83922173
      -2338.73660088
      -809.46960456
      681.99152629
      5015.65219520
      2808.28200605
      -18378.22992136
      -5122.03323266
      1443.71370470
      5945.11824087
      3064.07184956
      6275.35587539
      7401.85159415
      8176.14130976
      15049.67822261
      3834.86084078
      2650.35900551
      7485.50443493
      2049.60140711
      19064.69581686
      2510.08178076
      809.39836111
      1053.96083106
      1600.05111634
      238.01253152
      772.26894480
      2406.49473846
      2467.03080209
      -172.15837162
      2236.22019260
      1797.80610400
      -2285.70346323
      22.17104370
      479.42766706
      -396.87322247
      -72.14239039
      -100.10181543
      3186.47919861
      3256.99379209
      2230.42189220
      1460.08808458
      -586.89301390
      -1.60704362
      2286.67473966
      23.00337197
      638.59438646
      -309.77924565
      742.69568114
      1455.09342113
      1291.94948292
      3565.65325414
      1665.46013087
      2533.80099795
      3586.86470735
      655.32687590
      262.21763767
      748.10436498
      2794.76196240
      2780.50994344
      1135.46120772
      108.86994224
      2169.07118353
      2774.71798271
      1361.35829044
      839.53455169
      344.28697851
      5011.34653267
      715.94670504
      2126.54151186
      563.98127842
      2157.45536225
      -245.92164746
      -15857.23209146
      13261.69950074
      14536.44564980
      4121.21574538
      6890.98281578
      12647.06510278
      3696.87989058
      484.50527243
      2164.48417800
      8772.24596155
      9288.02329086
      3146.14288148
      6603.61406241
      10758.30123540
      -2537.89023194
      1760.53220136
      2218.77891930
      949.90124162
      704.40225657
      -263.66192996
      -1590.82022600
      221.09257973
      -1160.33003557
      1497.69417387
      1084.52223919
      1768.26710018
      -870.76822646
      1630.19388477
      471.24385759
      1328.42511523
      1504.78538208
      892.28573919
      1876.98931322
      -1565.40263077
      1483.41327833
      770.35812609
      2093.69806912
      601.88876875
      3679.70718390
      -2552.00838632
      808.07366828
      -169.03628895
      3961.67837238
      2564.56193822
      4236.61412681
      3228.65573923
      2406.06322705
      -1479.48928244
      789.36941244
      2873.28045461
      1207.59797858
      967.07490456
      -643.75655630
      1158.49584215
      198.97846144
      361.41682101
      2491.26027075
      1006.47906415
      3534.00802459
      3161.01292706
      300.69556891
      -856.49246248
      -808.70540171
      1144.20201630
      2235.17787994
      2543.31228544
      -7670.53798646
      4215.74400106
      -7079.65675806
      5683.96731367
      444.70974199
      3718.03178535
      5052.91393541
      5038.92707612
      2695.36125675
      2999.63643031
      1843.05620373
      1996.10553069
      892.92084178
      585.29892999
      1704.11907017
      1844.69324528
      1499.72971198
      2393.26462912
      1455.71274256
      2754.90225299
      1662.97016677
      4106.31888390
      1560.65900206
      1816.42054718
      2085.13461692
      1482.32334893
      44.49613524
      1660.09299509
      4009.30574842
      947.24016233
      1037.19895982
      2110.73058267
      2591.27152348
      2952.75493495
      -1688.62277514
      3861.17802123
      1235.80778619
      1132.25280310
      2123.00239887
      1006.58616337
      2140.10589326
      -1650.33200103
      1446.48627231
      -33.22509907
      1143.48139605
      2469.03445998
      2091.33770825
      2155.27326259
      3307.56670753
      980.92926134
      -571.57894185
      1421.58617895
      -93.57370265
      1415.32707532
      3853.02558592
      -420.59300764
      1332.93587387
      1524.09782722
      2138.85862784
      507.28442993
      -2178.07060412
      -20.07899174
      3311.27607361
      4655.40476524
      1534.91901323
      2398.74403103
      -7886.36499036
      16554.64002713
      7134.66524707
      -7262.03647439
      -4670.30752672
      5786.64458282
      1999.58469576
      7510.22257656
      2189.53632190
      2138.37136817
      1638.87034904
      2492.97641325
      2091.25718416
      1992.20266495
      -198.87217106
      1452.28771645
      2068.20354167
      -213.91622188
      757.58062299
      1034.32013300
      2055.07889377
      420.13488310
      1100.55149059
      991.02408745
      407.55378418
      1196.31205453
      -608.48600779
      1570.95553571
      1337.85613007
      3129.02951672
      1696.35940790
      -156.57424636
      1876.64010850
      2374.59212654
      1594.14402152
      533.97524073
      3523.94162793
      -883.70585363
      5336.25722544
      1831.28395322
      2155.36166691
      2015.29432938
      401.45037084
      -827.76649436
      -543.39478266
      47.00077161
      530.36976592
      1481.39746101
      -1385.11927879
      -399.66750425
      2794.88306604
      115.55437810
      1849.94708107
      3725.49557978
      -2809.73330497
      -429.87021205
      -19.96336682
      -3.33923077
      1262.84431515
      2769.03102468
      2934.60100567
      2246.17560616
      1056.79933162
      1306.82755506
      5818.17605232
      1981.13512492
      15119.42926563
      5178.23658097
      -27919.17237965
      6380.05927911
      -8077.53193685
      1453.15545244
      1777.27012434
      2716.59482313
      1197.09032601
      2005.01812855
      4023.26792236
      2311.61039482
      560.45658995
      1139.16188646
      -701.74288795
      651.21401864
      635.88955839
      2038.01398771
      -496.05479698
      2688.34613355
      1306.62349435
      2006.31681094
      1604.90003081
      -422.96824594
      366.52652939
      2203.66804547
      -384.62231426
      1140.94248770
      2762.84694769
      -1029.90964912
      -287.69389888
      213.07538270
      526.61129798
      2994.56079461
      -1176.51898773
      2360.02748866
      819.29868161
      728.92165684
      2020.24641571
      2663.20140584
      965.30360468
      -852.98909897
      1093.91380469
      657.45396857
      2025.86225609
      -1985.16021740
      1083.17887085
      476.99526407
      1355.77137983
      2508.55413866
      367.45200042
      -160.62421128
      192.96371192
      1122.84520923
      1631.79195109
      3610.59253399
      1843.79147344
      -6353.74546083
      -1110.08779212
      1303.00368242
      -58.24789645
      -3910.76441297
      1767.69542828
      -567.97255112
      -355.72477426
      -931.43867827
      -28338.34729544
      9677.54802488
      8672.31320970
      1628.32982552
      1701.49983447
      4348.99355323
      3493.35663180
      1984.57398996
      5339.54956010
      -188.33555576
      4160.49371910
      8980.77584494
      1184.81635832
      2691.87993907
      1386.51772738
      -100.17064078
      1121.59916665
      5692.19378988
      -0.07201404
      430.99533082
      1300.85481338
      449.83435583
      1840.27559655
      402.36899569
      1033.16786590
      1619.98928756
      638.85604059
      727.69162118
      691.78771832
      1123.70138047
      -16.79690540
      2029.01723474
      2814.29448220
      1002.91639956
      424.68232706
      53.90027078
      -58.76738041
      152.89936405
      1354.13512967
      1200.55233699
      2797.07643210
      304.68723371
      -251.72294104
      -1137.62503219
      323.39682568
      784.84543787
      743.89803400
      -38.26957426
      1908.69368425
      2945.99422212
      389.23835701
      124.42949415
      26.24226721
      -322.90901679
      -2162.51511339
      1423.05395436
      -2036.28243897
      -7921.24444864
      1557.86474691
      1942.79692016
      10021.69532698
      3157.47228767
      1050.58132980
      3527.78502122
      2181.73748235
      1292.28772660
      -22636.73269539
      -785.55670839
      5386.90213301
      3696.86901800
      3374.88334471
      5010.00378200
      2493.54958774
      4230.32560083
      1183.79793844
      1159.99361949
      2411.27172441
      -2748.91303693
      1080.63744103
      5.29211685
      -6299.41460953
      923.25818135
      1913.25802399
      -2367.33323475
      2548.65764142
      2617.77968628
      -399.97286693
      1286.48471165
      3733.79713274
      1612.05828121
      729.11855444
      3356.70366060
      2637.82059605
      2633.15202565
      144.39664470
      1584.77505229
      1565.58170703
      3131.14138285
      -3127.01725478
      2573.09942060
      1122.76081676
      2243.51700209
      -2603.24191499
      808.02693395
      1496.59022152
      20.63552376
      721.20749106
      -96.59850958
      727.82189794
      1640.38554788
      -692.00018762
      94.60865431
      586.62738799
      958.51732704
      -60.19235688
      -450.45714629
      1295.34106523
      2976.62281541
      -2405.65529477
      1125.94958192
      107.21512118
      -231.48362079
      -2458.62596772
      -1094.88394335
      2464.63713576
      5217.68135541
      4785.48857995
      1264.63847359
      5625.64590517
      4273.99592065
      3394.08077226
      -2725.22976404
      4682.03337039
      1209.22316133
      3963.97532341
      2797.11593540
      2615.51912441
      4484.25951663
      1889.47954655
      1214.47663497
      600.03667409
      2035.70576090
      1714.97860961
      1080.68326126
      563.92661600
      -98.10007243
      922.59255799
      701.47428715
      -1007.73711039
      1989.14448008
      355.94379538
      574.56634876
      1148.37636443
      1364.32720404
      2216.12438968
      2691.77994442
      2688.51462307
      1888.69186407
      301.91770016
      1514.22482718
      740.99834312
      -1659.78480497
      1256.29042873
      615.34861721
      923.14238689
      -662.81669089
      406.35467633
      1429.71800268
      -3697.53242082
      -2079.36647361
      2509.18266938
      -68.47977695
      19.58541381
      2723.35589261
      -284.78561170
      -218.71930685
      -248.20490452
      42.46802877
      -757.95594115
      -2214.86843923
      -3128.55256436
      764.79040617
      698.19849346
      1320.13309619
      878.08342816
      1314.23629834
      -848.30134375
      -6003.99830850
      7475.59795140
      1532.00928591
      2740.16344663
      2630.96849193
      3251.99468316
      2215.34339993
      4043.65891109
      -1734.99855787
      2413.88224179
      -1367.10578662
      -30962.88851667
      -5678.75686574
      5363.20991968
      7012.68922137
      462.47985471
      3034.20130562
      1650.88097159
      1051.10904564
      1445.03991380
      4319.75039150
      2542.98758458
      2124.22151492
      1124.90950826
      2799.93193414
      2731.38513041
      3838.43942821
      803.14891944
      810.61830120
      1004.53608960
      1369.62917341
      175.55310425
      771.65580163
      1343.42194320
      -446.68592201
      1651.90570739
      1322.80067984
      2234.83224931
      215.62148466
      680.79231181
      -4008.35141721
      1152.23348594
      -2171.38399040
      1009.72480801
      -764.87198581
      1932.75264163
      1123.69803803
      594.54022761
      291.16880054
      2804.17048428
      -469.51080512
      1560.14924430
      -1571.33481706
      1655.72018047
      -1464.57861246
      -1166.40471958
      -1555.58656108
      1911.37961640
      -1046.76982559
      -641.00960117
      2419.14498829
      -336.68621419
      1506.29181560
      605.72717801
      899.98788853
      1849.72595787
      -104.40444570
      535.46204954
      881.74811257
      5477.35314248
      1639.78936229
      2820.41259990
      5476.18400414
      2958.86793248
      170.87012637
      2848.16466860
      2628.86477243
      -19317.15986296
      3439.32525334
      3799.43821170
      10360.35183240
      5151.39895717
      4309.13962281
      5553.34230459
      3042.64562897
      2901.98383819
      2999.02484369
      3396.34644919
      998.47010033
      3179.34868536
      3026.89624539
      2215.50564647
      1237.35719978
      3131.92516873
      1886.00919801
      1533.49656093
      816.34659447
      2474.40840910
      651.41520543
      1080.66236513
      1301.75932165
      1674.96295695
      1487.79231418
      269.03777697
      486.97519279
      -462.92756440
      570.51417530
      671.65768082
      1132.66212438
      421.51612929
      1002.74556489
      1189.20515329
      -993.26460311
      732.46334339
      -5300.42060745
      472.13386094
      789.22488369
      1403.47113977
      1210.92785872
      3156.68853307
      -5623.73270526
      726.27472344
      -464.61015531
      -534.56252871
      502.79212816
      193.97619698
      217.52519542
      82.90862241
      -800.23701391
      803.94858031
      3812.87472749
      1492.18313612
      1297.77601242
      2686.55306103
      -944.65357068
      1686.48391864
      1090.98149136
      2351.55622686
      2241.22836887
      3595.08558764
      1940.71266091
      2170.40378811
      8413.24776376
      3211.75720808
      1009.27610082
      3606.84542366
      4066.14941841
      2103.72630482
      -3898.75601318
      5059.05227911
      3011.30970440
      1902.41366715
      2467.74319203
      2440.88744364
      3022.40436314
      3866.38792008
      3541.62835203
      9404.58524366
      1895.26848552
      2547.05334367
      1034.12992992
      1159.98421029
      1183.70316284
      1623.97941928
      457.02967829
      1171.20045013
      122.19479785
      1606.55741202
      295.81956968
      5453.73208360
      3598.19043738
      894.53455567
      921.47989639
      3202.37306011
      435.55531782
      554.74035177
      1661.96748586
      815.88377439
      2576.75909726
      939.98483409
      -220.29317618
      -214.19725542
      -608.53963997
      1178.72334252
      -2078.53387275
      949.95522190
      -1620.12508673
      -2552.17765339
      -192.20254391
      1402.81278045
      -231.14422402
      536.03619496
      145.36455287
      -667.24933372
      740.50911266
      103.37116622
      661.87609968
      2636.93678731
      4286.76302641
      -2930.08899718
      -7023.49985729
      479.17465067
      2092.80080366
      2961.23766884
      2590.31829022
      1371.09885255
      6699.32133442
      2200.72244309
      16350.05467051
      4069.68794257
      1351.07896724
      2609.29901244
      3447.73335539
      2706.38614657
      3929.58995448
      1098.38896599
      3842.35177201
      1085.49080581
      3300.19008946
      5343.32507140
      1762.19411998
      2370.13985514
      -347.97085264
      1336.11218967
      507.47477147
      1764.20236115
      1015.29384207
      2825.93668460
      1354.49325731
      2364.45520300
      1111.06481990
      1002.91260397
      -1915.02010455
      1068.58356844
      1130.32963380
      1865.50228082
      1334.72326245
      144.38855560
      1741.18373189
      2387.88350261
      3173.54493320
      318.27986027
      2162.85484750
      1606.87332491
      38.91774836
      -484.58982635
      2801.87037709
      1084.64267176
      1452.88800137
      97.56550619
      -550.93776243
      -399.95610759
      -3967.72511930
      -3894.56055027
      764.08296311
      -612.75962563
      2029.75553923
      -496.96228008
      588.35448004
      -485.12507188
      494.53705508
      252.91630784
      -4783.43583802
      534.43468003
      -6820.57845840
      -2655.46609907
      1219.40781351
      1669.30071440
      5036.52829010
      2245.23393956
      3376.13530058
      2594.14716753
      7322.76371901
      11065.09275637
      -186.54340293
      -40161.08078057
      2946.73680682
      2507.96330464
      5632.13863493
      5579.55476835
      1055.36966609
      536.19553384
      2824.41628704
      1057.70034301
      308.77022818
      3186.96859532
      369.85327890
      1688.01222678
      2871.23670982
      3269.71242964
      1005.68304922
      1989.06726362
      1499.41524162
      639.21127311
      142.49618595
      594.71509580
      2438.11326409
      1404.07724390
      1223.15716026
      -1194.99313457
      1693.77496163
      1316.39227454
      1367.60094986
      666.34166886
      1867.88980476
      -7274.62161721
      2068.95820889
      537.92682140
      1196.98085716
      1732.86736705