<?xml version="1.0"?>
<VTKFile type= "UnstructuredGrid"  version= "0.1"  byte_order= "BigEndian">
<UnstructuredGrid>
<Piece NumberOfPoints="5123" NumberOfCells="5123">
<PointData Scalars="Pressure" Vectors="Velocity">
<DataArray type="Float32" Name="Pressures" format="ascii">
      -71.77256879
      -15096.28582658
      -22330.38189580
      -25493.28008765
      -24261.99582305
      -28560.32273856
      -29272.80775739
      149.41709303
      -127.75601251
      -23569.16128140
      245.74643523
      -22140.43487678
      492.19379795
      766.17888195
      -20993.64946475
      502.27710106
      48.68941217
      -27025.94562458
      -715.06296833
      -683.95517056
      56.85993032
      -372.26183760
      -183.84857150
      3224.44280983
      -498.09458935
      1131.15258968
      3001.84615874
      1627.01392227
      319.05192864
      689.33373031
      -8.61461150
      916.66289582
      528.34465799
      594.84271998
      1462.59318768
      5.94084825
      1876.25744402
      821.34770367
      2432.03182047
      1598.74515005
      5952.96314155
      1738.76838235
      1476.13451343
      3066.65458755
      -4756.72726406
      -3840.38797590
      3186.22017880
      2242.54983333
      3715.53551356
      -5121.09062571
      1332.26842586
      -226.59867639
      250.02488672
      9968.77438205
      2339.69170348
      3795.68860382
      -594.32407147
      -7352.99218346
      -5197.89390411
      -611.06024233
      5775.35517436
      3125.78586709
      -2550.24001539
      -513.19768579
      -3185.90842634
      379.04243284
      3798.58420697
      5389.50317142
      1571.73772402
      2825.50566324
      572.29150311
      2616.34592923
      2178.82714198
      2025.37012847
      58.34353074
      7558.39321526
      291.68686797
      2635.24701912
      321.67103379
      -360.18551150
      316.19970600
      355.05138678
      -461.31410305
      337.85224047
      644.22224635
      486.86824545
      175.27728455
      1569.27506986
      -297.48107205
      -129.64300436
      41.00001635
      133.80830577
      6348.84275590
      1259.20973841
      -712.60369808
      630.05209856
      868.80947127
      -438.24478710
      236.51126537
      228.78132050
      178.16438086
      -875.53477229
      391.88527491
      205.34956271
      863.45968242
      2137.05418011
      1354.06418993
      422.65860900
      739.45961110
      532.24730230
      1195.10224460
      971.44757581
      883.17041254
      3594.45617715
      9584.02739759
      1577.51133663
      -9178.78684206
      -6996.00645119
      1128.78188611
      268.15080334
      -2965.23869111
      -2736.39293088
      5919.84132281
      8412.94619959
      2737.28339137
      -4467.59453680
      319.48415924
      3316.68892292
      -20.12901248
      476.76350110
      -7211.41575971
      5490.31696105
      -24148.52814249
      544.10163656
      257.52555124
      -4806.14196691
      1702.32960565
      1970.76512067
      807.07705995
      -361.49301397
      -1544.82286075
      -298.42780069
      -219.02952118
      46.41996348
      -892.38483635
      -202.96820074
      -38.17289556
      -904.91006186
      -3536.73614380
      -494.17173148
      -49.95679876
      -42.04459393
      499.68297785
      21.45168446
      734.17306827
      200.49201698
      385.68345340
      144.25616471
      269.62932620
      1714.96669821
      -6895.87062662
      456.11791899
      -2948.51505598
      443.22493879
      -181.32479406
      -1213.02465611
      1100.59459512
      -2029.88120762
      1663.22296201
      41.49845410
      -322.12742980
      -2475.95304816
      -659.53284065
      1232.84353675
      6788.41624570
      2558.92306383
      -822.89938840
      9501.25651858
      5135.21202606
      7857.77901592
      4679.65720965
      3970.07655256
      2639.20144388
      10434.16706572
      -637.42483945
      361.86704474
      6869.73173616
      -3730.99867160
      3389.85969127
      6559.05271231
      -3339.33911526
      1771.97839610
      -2793.88819854
      -5581.19684134
      -2754.23838885
      922.34652581
      -5821.66114281
      11.38333292
      -18716.99888393
      526.59952288
      1861.57655391
      -42.11253074
      282.89324094
      -3418.19912646
      4477.94370542
      1611.85572891
      2261.19731917
      2892.37003020
      3722.00822021
      2767.81761612
      2470.13770627
      3787.00653725
      204.69799597
      -179.47170674
      -2394.40732400
      1507.38271579
      1279.74978462
      2604.55997734
      1431.30824924
      626.38095167
      1061.35612349
      9240.60152200
      10209.83948892
      1747.25640585
      -1179.31514565
      -792.72882721
      1007.38734563
      65.80394085
      3659.17895012
      7337.15998795
      349.85139714
      1214.82482657
      4462.23938163
      2392.92926059
      2637.53247077
      2035.76927706
      -287.57482514
      1823.90410939
      9119.51243323
      -140.90267034
      4063.80356571
      -9365.52274250
      3379.42523623
      46.91592936
      1569.56509223
      -1354.04345994
      5931.23426802
      2846.93432518
      5904.62672043
      9412.85611039
      1631.23673071
      -199.23099431
      3603.38885217
      1579.89072384
      -838.23855849
      -396.84542104
      10531.32318990
      -844.96041938
      5506.51274146
      -308.41540177
      3274.27188851
      3840.36163061
      231.02936618
      12456.68281621
      -27399.67254656
      -1053.70986523
      7450.73665398
      4525.19962577
      268.50387798
      1789.82953370
      1628.74211353
      304.51114396
      2924.58079352
      1445.88887605
      1610.79240909
      1029.08743244
      1066.75868345
      3473.80785122
      63.17199269
      1016.73591023
      556.68045782
      1902.93004774
      2260.55139916
      547.60332472
      645.01504769
      5795.73225086
      4567.64607897
      2024.03073748
      1435.73414155
      1378.89985260
      697.56643297
      699.24865174
      1691.55811514
      2041.39850785
      1563.50673940
      2031.27923335
      2301.28029035
      725.84097989
      606.12139657
      718.13237000
      698.73099686
      5290.14418712
      2545.69546198
      155.46682082
      2279.94892057
      1872.90140107
      8421.75378403
      1785.79765499
      1007.28088284
      2432.79120738
      2046.08418392
      -7811.90594274
      5508.15552502
      11432.74947181
      14293.90952598
      1327.59418444
      1083.58417785
      1872.06236598
      -4427.99864433
      -958.00274147
      -1300.57368403
      492.13779666
      1899.93403359
      2644.95249937
      1651.53969695
      2887.28497814
      4124.88000896
      7582.14614399
      -531.08417534
      9041.02448845
      -20980.90566408
      6004.21400620
      2740.64632311
      742.79737231
      1241.76269590
      -39.58702148
      3550.15579743
      4194.42456861
      1916.19350384
      2867.36419091
      4640.65308043
      74.96929012
      2279.00251078
      6928.64467625
      5735.41102771
      5689.46063318
      3371.65077780
      5656.40250505
      5899.73706980
      3372.99908035
      5395.30147480
      166.07651515
      1688.62312550
      582.68330330
      6018.22850649
      4884.26649713
      474.64851026
      1541.34950264
      1725.24039607
      1898.33435237
      2280.51215057
      2121.74274052
      1306.11273239
      2617.23094275
      -1216.85088665
      3273.20679040
      1437.25521771
      3767.01699703
      3127.01338715
      2781.90915455
      3320.57285113
      2169.35313483
      9262.97933302
      5814.12845455
      2407.92983514
      3304.35237185
      1227.05733125
      5294.81596786
      1242.66961375
      6708.01355933
      1339.69546011
      4036.06183686
      -1680.03585639
      4645.41248621
      5507.90624502
      12534.35203940
      2640.80557708
      11974.91182333
      -216.11831886
      4121.48675484
      -2207.56369032
      4059.82257468
      4028.24740568
      -1984.33713279
      4969.49917867
      7108.36738160
      4017.29442762
      5474.68903030
      988.45143458
      5484.41982247
      6478.63858344
      1723.46204526
      2170.71890643
      3462.35208008
      4834.31565778
      9169.44831661
      1569.71037212
      3151.88016470
      1483.01466480
      1312.01067343
      3782.47585225
      2278.40040141
      3263.92606444
      733.74203519
      2274.23507899
      1781.78605201
      2100.73610870
      2588.46915744
      9991.32623520
      9167.02208486
      7020.32640295
      6574.42977906
      1942.08417113
      5623.21755209
      1569.18574931
      2160.97017785
      7222.55661751
      2486.51419675
      2047.70509293
      3714.75700676
      2369.53446033
      2167.64007394
      5946.77464959
      2104.74386378
      12738.93719102
      3573.81350233
      4574.96574181
      3919.73601230
      1864.85941378
      675.35301414
      2231.33064863
      1462.07167736
      1119.51180402
      -738.96038910
      2566.04502430
      3935.28000774
      2032.14874405
      1810.70080874
      832.21999392
      12137.74720608
      512.01232658
      2091.38169280
      6158.21593939
      6049.44224495
      7190.54870136
      6704.08629958
      -1042.01880810
      3112.64491298
      2006.82260323
      4170.86151685
      1634.10073269
      3969.31314473
      5735.88911679
      3267.41692029
      5758.89147832
      3513.05133167
      6258.86995870
      1862.08238620
      3932.57746483
      3137.63499849
      1090.59920664
      2559.60178335
      6867.56973957
      4820.45419182
      1945.27119856
      4424.03170638
      7400.49064487
      4419.13785202
      6449.55951647
      5285.88370087
      4494.41498540
      4422.41356078
      7091.95383325
      120.54738843
      4787.70512753
      5856.06312081
      9381.51887957
      7847.66002260
      1229.20740660
      9472.62441928
      5048.50462014
      10403.71927069
      9859.34390407
      4375.31773844
      677.94252360
      7806.39795626
      4424.28797773
      3282.96261976
      2167.21761991
      2831.42015314
      10297.89049819
      3300.47017723
      6644.06106757
      3537.47463945
      570.62245990
      3075.82419799
      624.96550854
      1078.74970623
      3695.81615218
      7519.93527747
      -217.63257846
      1550.30083906
      3138.97194547
      4330.14020936
      -106.22723885
      12212.42485840
      4612.61054689
      4033.75167264
      6218.99657536
      10012.74342624
      4409.46127642
      2299.78090440
      -1164.00345383
      2158.42073192
      -721.03897297
      503.56980405
      1445.77608067
      -1516.32343609
      -21336.21804100
      5472.69677966
      8674.63848358
      1781.76948769
      7754.43059269
      2454.76940476
      11997.80056593
      6069.24144103
      6204.04739500
      4261.21736080
      2702.30326993
      10054.24241292
      33374.52324117
      -462.54677880
      24009.23944526
      2919.65109662
      642.61765031
      6889.74173893
      5072.10071847
      6099.39547648
      7143.08655374
      2535.93253284
      14850.58498959
      5741.63141757
      1335.78018070
      18990.21397735
      9401.76711158
      5953.49799255
      3206.90772649
      6062.76392298
      12084.91380504
      1957.72197340
      4443.46504890
      8076.40075634
      7789.61363335
      4588.66180218
      10270.90160624
      1299.29228261
      2208.79478175
      8327.94556567
      1102.91122413
      4365.01227370
      2076.84549505
      -4733.78284132
      8491.85382213
      5317.51670285
      1650.06007120
      3227.53661038
      771.56385813
      2609.27959839
      3244.03488627
      2867.59482126
      1260.32291853
      11341.13079465
      1901.00305899
      7981.86680601
      2714.06228631
      1220.50614648
      1551.48039747
      612.42070304
      -5607.07457443
      -1128.47535343
      -599.55865288
      -14.00319717
      2372.47154909
      3822.35167241
      2008.45074680
      -16161.55176151
      2588.30027505
      1940.28872606
      2693.99194920
      12706.51408481
      1282.56835450
      4621.27418785
      19325.28642010
      -1902.01666031
      2985.94348409
      7536.28380023
      5610.05892943
      11387.75364109
      8109.35472586
      15051.81202487
      1895.23531385
      5169.56609143
      6688.77640090
      3025.65267068
      8820.42552420
      8186.58613743
      3685.11959692
      5411.18117309
      2387.53645811
      2345.07675202
      -1230.87911825
      3534.03050833
      2112.39321239
      3900.92094875
      380.46630685
      2874.19491302
      5752.61316818
      5525.02989105
      8141.65165381
      1291.04013427
      5886.93712420
      6685.48881303
      4855.83832702
      2887.55043107
      3635.75144000
      7726.09465818
      8106.12323298
      -375.59626511
      1969.87781593
      2194.39231653
      5876.55534421
      -2475.61697455
      2627.96290269
      2618.84477904
      481.80371292
      1914.98207876
      8569.70353271
      1730.28218604
      1711.41078176
      6373.82000369
      8285.96952865
      6853.05082409
      3623.59187337
      3601.62060560
      8157.41137506
      2165.14744708
      -5432.74093794
      1006.58917541
      1631.73136292
      1073.81577894
      -18378.22992136
      -5122.03323266
      4610.54167513
      7436.72697070
      8969.79586678
      4250.88272090
      20997.98870734
      7502.12724169
      10938.55927859
      6671.90312961
      6289.88384408
      10648.54873950
      4750.48375414
      12259.04549185
      6155.89000281
      3690.79137967
      811.51414759
      1700.56085081
      178.12201172
      175.63310318
      2692.02794424
      775.46015008
      3334.90507355
      -1256.38331095
      -281.92782844
      2786.25996880
      -1148.04494288
      1414.41011128
      3935.11175611
      634.64792641
      1028.00936560
      4465.21322873
      3160.11921159
      1587.38079916
      -1312.33731402
      3600.17604462
      1810.23125480
      338.43762269
      -306.24760124
      723.33225406
      8287.08484886
      1161.99989954
      5414.89991523
      3856.09839120
      -177.87859263
      -1028.37426168
      3171.99767813
      4188.54797662
      263.53959207
      2190.99090251
      1678.54948914
      -517.05667169
      -556.41995819
      6094.63655778
      636.70536985
      -3579.37945667
      2336.24957801
      1943.06632024
      -764.27772563
      -396.56629744
      484.09864052
      4700.44719222
      7157.21117893
      2824.85784117
      -1572.90655676
      2315.63631708
      -15857.23209146
      2378.58779251
      5377.28634951
      7414.01679674
      7191.44138747
      26375.21381553
      3364.48864471
      11130.88837361
      7256.91892528
      8724.96556689
      5073.79111539
      15642.38585095
      21474.61047249
      13894.49551787
      1811.02533972
      3636.12374159
      2062.80124660
      7654.85217586
      1486.86876629
      480.90237643
      -96.02530823
      5836.44244902
      1613.91696090
      4315.34399714
      3481.27463739
      3149.50518140
      177.12490081
      778.08131776
      5661.90266586
      426.60054912
      1484.14822887
      -3930.95434764
      4816.32670892
      2052.47164359
      10409.42934790
      2721.83094718
      1816.12335275
      5317.71052763
      3707.67606836
      4444.94965038
      1282.27211011
      -1385.32672535
      7927.21662405
      1603.88179359
      6688.33236179
      3551.10141305
      1010.00016526
      -1390.98822477
      5194.59167002
      -2054.45911643
      -2558.78150451
      1470.29620962
      1834.83516145
      -151.56133655
      3300.12124036
      2861.22824932
      999.23147096
      7684.85928380
      3445.97275804
      -770.11362349
      238.70624991
      -773.97283815
      1459.68547112
      3761.87284168
      4745.10487875
      4034.58830918
      -3078.86742959
      4427.08583967
      13161.28640283
      13873.10552541
      5715.64179023
      797.59528615
      15235.11195226
      6806.85914449
      6267.72995447
      9969.16325110
      4869.30450445
      3165.20358291
      1947.30705986
      7499.98752264
      1528.37392253
      1044.83478482
      3836.66919716
      796.28133261
      1519.39266635
      3402.38979825
      4604.93052183
      2597.24279653
      4275.52622087
      1420.45104673
      2657.90335157
      3678.63021590
      684.40726237
      2296.14337458
      4310.78020112
      1268.34235360
      -208.91748737
      798.34598824
      2376.79465896
      3846.64424096
      2412.01431779
      3650.33805429
      1344.48489195
      -350.80629301
      3987.12171797
      2928.88811232
      -533.14460716
      788.25319451
      2988.71991141
      185.12164750
      -1094.50149271
      913.20150893
      -3291.13791028
      -374.73251377
      4420.18622556
      1645.19047487
      1213.88740740
      -430.94757270
      -1301.85720879
      655.88785996
      3541.33616684
      -969.01457558
      893.35588473
      710.17152428
      6462.30909136
      -230.31016771
      986.63213361
      -545.17293740
      311.72269220
      4326.89700879
      4269.86193094
      3061.13820195
      -7886.36499036
      3071.36554375
      1892.48976997
      2001.72826779
      12176.15490058
      5758.56313469
      3456.84632700
      12727.97406664
      -3433.31369633
      4072.86816888
      4575.86650822
      1300.62220301
      722.55132303
      8085.08140813
      3370.51547809
      -304.35604541
      1577.08579839
      2151.19293642
      1977.97874181
      3557.59985181
      1114.19374611
      1825.71785265
      953.38371880
      764.45468921
      1261.56562359
      218.83454509
      3297.85114958
      3943.66914279
      3018.49362369
      11878.74889119
      3864.21610807
      3120.45817962
      1662.35904380
      795.41477097
      1074.38693145
      5214.52343602
      7239.49330094
      1192.32597215
      4254.11521911
      4075.53713859
      4642.35014351
      4763.65146308
      2954.52344865
      4738.29468063
      -895.46063354
      1486.50356220
      7458.21954354
      -2276.36513328
      1322.49575311
      -1654.13938007
      2863.86811248
      1696.76506625
      1336.18776899
      -1692.62966561
      -993.89197605
      -753.58924008
      2929.95415037
      4508.79060424
      -605.99692804
      -541.65921388
      -836.67230683
      -3179.54354730
      706.44923887
      -6133.29342586
      53.66490985
      -313.06354814
      2941.08158359
      19890.38017652
      18426.59102017
      4540.79545509
      11670.98104052
      4450.38854379
      5147.12163615
      6709.63340150
      3089.06749923
      5092.93380765
      3592.94504278
      4886.68451872
      4476.43932760
      -971.83520952
      1365.04782597
      2624.07601569
      3960.03188348
      2060.51497524
      393.76310165
      -165.73060891
      1931.80467398
      3299.09379608
      3129.45121058
      13922.63653091
      4287.90928470
      5544.35371310
      -2249.10652186
      4213.76552758
      5772.66831664
      2438.82482983
      1669.49767182
      6787.72511681
      2813.31223751
      3446.19735839
      3122.70342764
      1698.72857896
      3375.50860004
      3859.11349850
      2971.42069985
      1898.10041174
      1951.90262121
      -607.32812038
      2351.35795123
      -1101.58326658
      -336.89127163
      -2653.63830795
      1939.80152647
      3998.49480839
      2243.40872560
      1724.28589290
      2544.62924140
      69.64233654
      304.86263042
      2859.09068059
      3707.60724584
      951.49564202
      2317.38236618
      2661.82256663
      -10107.87791712
      -956.87119968
      1253.13376198
      6248.26552909
      955.20798861
      5558.58619935
      5242.98140862
      12295.93219376
      -28338.34729544
      21414.61353589
      7868.40338833
      3636.29020692
      4475.00415777
      3154.49702453
      2895.48066899
      5336.72963653
      5074.67560484
      3658.41449723
      8245.71467106
      7813.58335111
      6935.52828782
      1849.37453195
      3308.71626451
      2941.55228270
      1095.92437875
      5802.06720008
      1803.46516914
      2075.64874901
      5517.09722087
      1809.28674841
      1657.11799787
      916.39925945
      2382.97845209
      8730.02518133
      6675.51987356
      4131.98023681
      4157.35882728
      6662.23548978
      412.78999941
      4586.85997413
      -226.17121568
      -944.86391612
      1525.54071975
      1912.84654668
      5810.36964889
      -6650.09211493
      1810.25180536
      599.83164343
      733.72795543
      2605.67180276
      1818.40116828
      2270.32299360
      -40.99106640
      4183.04212645
      3886.48571503
      -608.06158242
      -158.81815581
      1537.90854461
      -8.60989334
      -386.99726167
      -639.25405345
      -685.97933063
      -2571.27572005
      4459.14832060
      -845.45369221
      767.32150221
      -1503.69594036
      -4482.70269401
      467.16865507
      -1448.30820967
      480.12934056
      10424.53492340
      4313.59961633
      5808.01016984
      12172.90552788
      1101.10832100
      10512.96908781
      5262.32049417
      7335.24062526
      2361.00231287
      5286.21441335
      6087.86275401
      -1443.20960284
      -3143.55514469
      1698.21762105
      2831.72330008
      3602.50366339
      1022.52851999
      2777.38485038
      1995.57830222
      2178.76866064
      2412.13618208
      4120.36555462
      4957.04070164
      3262.38771613
      3876.79730311
      3717.60628221
      2947.12110627
      4540.76381717
      3457.20761128
      7515.71516405
      3323.36886110
      2953.29904409
      1968.20330091
      3326.09005461
      1134.28182873
      3710.26028077
      -51.78298081
      2267.65857744
      -1019.61625754
      792.47702983
      -8518.63830816
      2188.70235636
      -308.28169445
      -295.91588839
      -98.20503612
      143.64537935
      1133.39066731
      -902.67007296
      788.65702191
      -229.85312299
      5818.20899900
      1801.59817684
      3145.51310909
      87.68495767
      395.17055077
      2.96263814
      735.32429748
      -4021.31087111
      -525.23531291
      -50.25683687
      728.45232367
      -3796.04169199
      1284.41530058
      -524.87246373
      6952.60710899
      16151.23047097
      -4918.75200635
      7008.77604693
      -2220.94447071
      1470.42560000
      3571.10575828
      6232.05544302
      8832.85048980
      6493.76620369
      3977.61124179
      3903.38178683
      2032.78154995
      2509.49338028
      3106.33414763
      1430.04394280
      3225.98946780
      8170.92704570
      3199.81622430
      3385.64128286
      -2167.55994645
      2217.50384990
      2579.06175258
      -5905.68841195
      4534.00164955
      -1365.49975860
      1557.84580524
      3937.74258781
      729.12645812
      1863.51939105
      7229.13473501
      5232.73812766
      5287.68978653
      2033.46066899
      2700.06450282
      2886.60239692
      476.84584385
      707.50298183
      861.58684948
      1680.21062861
      846.80835444
      153.14657946
      521.42509338
      1823.46992139
      1786.28001836
      690.15552858
      1538.97902998
      2784.00253556
      1117.90010989
      228.85812914
      -1418.96250356
      110.39024316
      1086.05472146
      -527.01830659
      5415.82239545
      2540.21801610
      812.37986577
      167.93348853
      -2984.25112018
      -1001.91885135
      -883.04503118
      -2180.70246689
      593.39655254
      -729.64870239
      241.30177369
      13776.72036282
      2291.57962296
      6927.01303306
      -2315.48772508
      9868.22784218
      -1554.78599012
      -30962.88851667
      -5678.75686574
      7214.69526153
      9441.19173284
      4576.75726026
      -1404.14850540
      4944.79688813
      4040.16100155
      1087.06995471
      11247.92314647
      2822.93322248
      3653.87124621
      5886.10124391
      4877.23066538
      2591.34239448
      8786.63947700
      5918.07114811
      -3602.32111682
      -758.19058742
      4398.02600778
      317.52670478
      462.27062449
      2491.39470463
      -3515.91609042
      -2644.83105282
      -5287.25690275
      3319.56858462
      6679.90018799
      8801.04659753
      -1839.94326076
      242.30530885
      -3078.36789917
      4237.02463861
      4361.32280964
      2335.02439769
      781.70834586
      1374.18882394
      -1887.37659133
      -134.96073543
      1507.10394557
      1188.88997828
      239.83715077
      96.03352714
      118.53257474
      -164.34449397
      -2565.18204941
      3356.65052469
      -760.47204531
      2202.80239860
      -783.08115100
      -2012.20204248
      -627.52198103
      4189.75386075
      1309.06692757
      -1795.41536158
      3117.74209494
      8683.35917247
      7397.51104575
      3884.55599710
      -8194.47705851
      9960.71725718
      8704.38746658
      7916.22467981
      706.96761004
      1504.18645203
      -2055.20203801
      -19317.15986296
      3439.32525334
      1734.25231303
      8195.98283737
      4714.32658483
      3900.96039220
      2232.87192775
      4060.83605301
      2616.68374786
      5497.30502250
      8860.01657729
      4935.81153153
      6169.47622197
      -794.54316408
      1063.62389623
      1358.74923869
      4470.83669159
      1590.94754971
      2070.55966317
      2303.34741999
      2307.45848342
      1601.19791341
      672.20328482
      1414.45572055
      180.47342244
      1852.22248032
      4247.71074464
      -1954.92705377
      4102.93488266
      990.89258573
      1808.85552009
      -2461.99833817
      6844.21754276
      2675.19015809
      5242.80417519
      -308.02161684
      1518.27581797
      3160.14794198
      1914.10787918
      4047.45150898
      57.54326343
      4173.07489727
      -1256.66104043
      1718.36074998
      510.52708621
      358.32355165
      1484.83467548
      -686.93168489
      1250.13287385
      2038.51893319
      1187.24785620
      1463.55282787
      -254.81568319
      -382.25613084
      1121.62117459
      -82.59865846
      503.40222594
      -253.82828300
      11162.85290554
      3444.73211449
      -5230.50321107
      10228.40668576
      3883.45248829
      1150.07319009
      5690.14339334
      200.83659914
      3211.75720808
      -9123.19744233
      10606.04618918
      7933.06520847
      3370.57294953
      -474.20297667
      2871.92301266
      3308.16626816
      2058.26700572
      3137.52148727
      -4062.08885881
      3903.08308862
      1411.80925476
      11237.75040689
      4881.83780685
      3024.19664351
      1659.33996334
      2680.96561890
      1188.36301828
      550.58445344
      2519.63642125
      -1403.42031381
      -286.46558102
      485.68349342
      2224.88805206
      1016.61670494
      4166.42694182
      1004.71055569
      780.06242435
      1445.68245634
      2665.49578672
      -58.64741891
      6254.96158896
      1419.29254554
      -1608.50828401
      -897.19483501
      -4802.84705281
      7037.44422032
      2595.36085522
      -1073.75904496
      1922.30990442
      -1260.09675618
      3530.06259039
      -74.81124509
      475.29879477
      4796.82642614
      -522.33523799
      1158.90722979
      1388.30013361
      1614.39818671
      228.70723208
      754.61819669
      -96.59673752
      -469.02920637
      -2698.78136087
      -1781.56537077
      -1010.09493489
      -985.05256403
      280.45101518
      -88.18675903
      2189.84765118
      2789.07349507
      3825.78439962
      16076.44335631
      7653.33066460
      381.31066839
      10866.16222815
      1351.07896724
      2642.50221715
      6611.57061043
      5598.53637536
      3144.95520350
      2893.07258364
      3056.66518679
      7598.57618891
      866.90960101
      1167.91135225
      -1223.47872001
      -1973.04134475
      5126.05756004
      -417.49719182
      -2238.47788404
      -4439.71840376
      -2194.50528593
      1691.43838371
      -269.44707995
      -1273.26102536
      3656.10884526
      2152.62245728
      3023.19362383
      3999.49791174
      3033.38588876
      1856.01003005
      1532.01441440
      -633.42279168
      3189.78751268
      87.57267543
      -952.31416348
      3279.85334487
      138.89470958
      -249.53994266
      -1004.16508285
      3562.33464580
      1890.13699235
      -573.79915959
      477.39111518
      4893.96077138
      1777.68542918
      1999.74424032
      -257.80866063
      230.56233956
      146.55183775
      2198.62370940
      274.44830823
      -1052.58271776
      1804.55499684
      1951.91987188
      -15.98595101
      647.90462152
      6093.61714998
      1261.86683666
      343.79788844
      -506.99483582
      742.68047229
      1368.08360102
      -1593.06685901
      6910.81370919
      6732.69577987
      2542.45457902
      2321.35738573
      -3094.60965147
      -501.17276871
      -40161.08078057
      -5217.75642295
      5122.71384427
      5839.99879492
      4364.93386032
      5306.45635135
      861.15294039
      2076.26901089
      3581.17162703
      1723.77895980
      -4011.63290134
      2220.19212556
      5602.55598020
      9402.32047280
      4415.31064332
      1299.64859572
      2348.98913905
      2825.74328825
      1470.54231798
      1559.64077869
      2214.65873329
      1502.98604423
      3900.17284934
      2039.99344379
      1857.57240343
      852.95303961
      5637.57746343
      -2533.84947924
      965.63761181
      2233.01303221
      1062.34584526
      -479.32208977
      666.88219812
      -531.64549443