<?xml version="1.0"?>
<VTKFile type= "UnstructuredGrid"  version= "0.1"  byte_order= "BigEndian">
<UnstructuredGrid>
<Piece NumberOfPoints="5123" NumberOfCells="5123">
<PointData Scalars="Pressure" Vectors="Velocity">
<DataArray type="Float32" Name="Pressures" format="ascii">
      -1153.74261351
      -20479.23252276
      -23805.65725263
      -25493.28008765
      -24261.99582305
      -28560.32273856
      -29272.80775739
      8300.43568131
      9818.52934424
      -23569.16128140
      16891.06601908
      -22140.43487678
      9544.53979217
      4961.48486201
      -20993.64946475
      10513.52009446
      8553.34648463
      -27025.94562458
      4600.79224099
      5380.40774350
      7435.23668167
      5346.66439717
      983.20464759
      546.75156425
      4573.93414886
      4810.54108621
      1173.88402531
      2373.86663917
      2476.99139745
      -1206.80835894
      -1996.81792498
      -15063.80533956
      5741.70771193
      -3677.72166458
      -614.64985810
      -5542.68557161
      -704.99898493
      6218.28930488
      -465.84709259
      -27.49101555
      -10421.27316766
      -291.14133177
      -632.41842857
      5401.15311682
      -2768.13977727
      -761.16320186
      3416.05619178
      101.90643156
      -1624.79409755
      -515.13049838
      -441.46840188
      -485.01613819
      -2261.84593660
      -170.69607867
      -1467.55680674
      -1336.46730339
      2915.85056605
      -1152.61381607
      575.69152609
      -170.94167843
      883.40664714
      -918.82591257
      -565.25097792
      -2409.25191442
      3845.14828988
      -1078.26300813
      10340.25940821
      9709.30814723
      3979.69034261
      5145.75826177
      4289.78825372
      2183.19084625
      5658.92177150
      23767.26529438
      7480.38748201
      4614.74599103
      6842.99465514
      10056.80706166
      7725.59864726
      1466.00084501
      4300.08193977
      2368.73414683
      1074.28198692
      2543.41670140
      1907.99799978
      1583.21429624
      6254.35246917
      2583.06780602
      1746.09592787
      2166.83363795
      668.47685628
      485.05103506
      7354.00619048
      2480.74946070
      1274.73555569
      3589.87030149
      -7199.93869993
      3835.48457804
      2066.26694032
      1522.17711667
      685.25745814
      1030.12642705
      765.59107275
      630.15816626
      -224.12781568
      2387.95500773
      1071.57946360
      -372.63607654
      578.78093928
      -226.30256585
      3022.95586807
      1675.17802298
      1753.90883860
      7036.49049565
      -8692.05093711
      648.20139969
      -1589.78892119
      1618.20977746
      2994.20619737
      -2185.11157873
      -6722.50928615
      3568.85554143
      -9817.30169941
      -1461.61756500
      -168.58033726
      -5636.05908906
      -44.82523241
      -543.33998886
      -2096.30096516
      617.30355189
      1209.37195075
      374.15684149
      7040.87044601
      4430.12618541
      2106.49603223
      1853.70105323
      2403.16664844
      5473.04258957
      10460.08536730
      6011.02719146
      4611.80562356
      8489.28154052
      7660.84175390
      5197.25298958
      7250.23439664
      7217.23387416
      8669.85779834
      6753.09355056
      6145.90731659
      10217.20129129
      6858.12632204
      7168.45144389
      3598.35794038
      546.57408555
      1653.70621245
      8662.29580420
      4612.30497696
      3805.26011117
      1168.97068524
      5044.61144809
      7640.71980729
      5306.09531311
      -5072.96510023
      4113.67471640
      3928.12818074
      3854.84289174
      5230.79801334
      284.14633340
      2822.06499599
      1112.95821108
      2232.79562015
      -299.27696495
      -1740.47539484
      3898.02891310
      7940.19284354
      -2277.82849936
      -139.76203402
      -8453.69937492
      6862.33027789
      57.35961819
      -1733.23604260
      6980.50805759
      -2176.86789408
      -4264.40897252
      -6569.83519067
      11829.37453658
      -1590.68131803
      -6374.26334182
      -115.62230032
      -1680.92356364
      -3486.56725757
      -989.56255842
      389.12821394
      -1769.46630521
      498.29879725
      2270.23502178
      -1463.47474713
      -571.42716282
      -18716.99888393
      3850.09216368
      3571.99102472
      8048.38246631
      2457.46520895
      3957.73523239
      4261.78213027
      6882.99199661
      3715.81413186
      3830.45636867
      7081.79532465
      8793.52562360
      12065.35404331
      8328.11467882
      12882.46923678
      6852.94866441
      4224.73635021
      5701.67190964
      9166.35835065
      13748.27531846
      -1642.13474818
      6079.68360501
      2191.54680582
      4548.00728115
      2984.92182424
      3378.07934359
      8277.53073821
      3687.51534918
      4749.79490353
      2921.43515171
      2822.40424299
      3756.70243739
      2585.53561371
      7794.83396949
      8320.52939169
      1455.93283406
      5599.43875451
      3057.07865480
      -245.56823974
      4610.45748337
      5633.21403924
      1338.21043073
      1066.60627790
      -484.38699033
      4847.92053400
      3254.01578186
      -876.01971168
      1807.79292171
      -51.91623505
      3272.56926483
      -208.18755240
      -3467.50138786
      1618.59514266
      2160.09035050
      -1365.57062173
      4497.53695515
      -4561.25124014
      3468.54597582
      3101.60074966
      463.82426982
      2256.96126882
      2216.65606867
      1229.37145049
      -2028.42553330
      -189.26630322
      1420.81878409
      -27399.67254656
      20690.46910234
      13434.40520173
      11269.31279637
      9091.54171688
      6504.02518281
      8775.59726473
      4714.32632583
      12495.63810306
      5842.19941307
      1812.23891438
      -4954.13804966
      8179.01104744
      6911.23010788
      12408.28779122
      9411.74099240
      3442.07519796
      -1511.74420809
      12176.06122653
      16835.41578730
      4484.08473259
      1913.86594578
      11580.59487997
      1533.78848375
      3320.57229043
      2412.64563512
      3279.62600096
      2916.21566658
      1221.61641827
      5015.48427039
      6233.68358445
      6939.87162960
      1313.94814358
      -2467.44264170
      5731.33418839
      7070.39274636
      8888.54956136
      6569.18529109
      2550.91781209
      1988.54607611
      3088.58041533
      4065.30762954
      3843.00756365
      4580.47473817
      2746.21603199
      3858.35768698
      2571.92413033
      3524.61523977
      5798.72956526
      1043.03567095
      2722.29573730
      2004.11580318
      109.68633484
      1052.06290875
      3417.22645697
      5852.61738392
      -525.66807438
      2541.08869496
      1013.94381711
      -1099.62789491
      553.31250182
      1519.00831417
      1945.98920091
      2590.28038742
      -1220.10893641
      718.44172540
      -20980.90566408
      3134.59483206
      4218.14061947
      8261.94878167
      7806.66693353
      15097.27949427
      9869.52640944
      43759.87684221
      7418.46281317
      11270.88092423
      8782.47113974
      -46.55643928
      4385.75057241
      11045.51441571
      6999.97097621
      3776.54984259
      6942.02985072
      26009.14959155
      5990.97744158
      4927.07613507
      7688.16783938
      -2459.49030523
      5649.73052665
      7877.78863887
      8963.03057094
      9865.76914646
      6711.81173421
      591.84287258
      6316.63211640
      7076.67873024
      4132.33171585
      7114.77188512
      5889.65963365
      4183.08780075
      6204.02379613
      4426.42268112
      5786.43958397
      4221.71313824
      5641.36034046
      3802.95971675
      4218.03706587
      6877.83412648
      4300.24631070
      3719.24009352
      1242.09064647
      2059.57600450
      5603.36767287
      3847.47500153
      1895.92643223
      2202.57517609
      4900.62965736
      1634.86023719
      -781.87075868
      4040.00117107
      3772.30015692
      626.75499898
      2684.29302240
      3123.72163312
      1065.70746144
      1918.76217559
      1886.02586117
      2754.07038577
      -2530.16907835
      222.04389630
      312.73258921
      1002.24223912
      -6165.05869717
      5531.46451935
      3326.62910040
      7813.01368430
      4776.91655982
      4201.23604695
      4420.56908898
      14322.82252632
      6461.91827910
      8317.77673476
      15449.76513152
      6382.75320325
      648.82431781
      7347.97450739
      4230.44364760
      8133.41494634
      3946.89769677
      -407.56102972
      1538.41394415
      7730.62809977
      9496.86617260
      6435.40764380
      4290.89501767
      7526.76449321
      7310.01665114
      6311.93226094
      71.43846989
      13286.95417654
      1874.02334094
      11650.87133696
      4015.36501116
      5741.33560865
      563.39516357
      2541.77261157
      6070.30084661
      1588.10492325
      3391.08031326
      4252.63468110
      4065.80627206
      5526.78251377
      2051.57714960
      2526.94259965
      6170.75252944
      7262.09433658
      3515.13444913
      2250.09725442
      2418.31434757
      3062.25411045
      -595.48046243
      -1010.03840280
      4821.07568651
      4023.58312895
      2034.33358026
      1713.08616653
      2967.81704131
      2725.58096147
      5425.34208887
      -517.06221436
      898.43907576
      3760.42258924
      -445.35573693
      2140.27643722
      38.32067729
      -714.77873082
      -93.40407243
      166.27548335
      14692.85152978
      10277.62898529
      2943.72070309
      9273.87141282
      5885.68090817
      9728.51108262
      -1890.13461129
      8438.24612798
      129.98858996
      10530.21457125
      17176.70362042
      19406.19945110
      6149.64873523
      -764.45095738
      1022.99710971
      1316.79402899
      4446.94038994
      9145.91397462
      7633.19189205
      5203.82946866
      13256.41468323
      9096.43655489
      7807.86715279
      -799.05076183
      3426.14038287
      1006.05631065
      -3022.97271043
      4049.94268266
      8076.88133895
      8764.93847383
      5706.15411705
      2279.35722651
      9266.79102964
      5469.54352914
      -2129.05235861
      1544.50971894
      3852.68060924
      8065.97236830
      7964.52193109
      6755.65278853
      4764.26168005
      1321.77612687
      7788.32093601
      400.92725863
      5608.32592353
      4759.64385710
      3241.59646376
      3289.71850488
      4018.07294362
      182.77886835
      4413.08905303
      1165.49857918
      3705.63395360
      3585.54742027
      4113.73731568
      2043.84310538
      4149.64473870
      1042.21743396
      3205.67188628
      2776.26499866
      6195.23038317
      5652.40209743
      167.18699507
      1899.23133472
      105.80326143
      -244.21831470
      -21336.21804100
      9396.36054719
      15921.22721615
      17511.81850706
      -6053.58569390
      2134.56247497
      25160.32826239
      3012.37350168
      9403.48178726
      16341.89649369
      6400.76639573
      -3363.40671539
      10553.89722489
      11021.97084805
      -4159.90034835
      9911.13363532
      5066.77300802
      11288.23707684
      3768.25797337
      8024.44747874
      4580.81793523
      5168.16633709
      5318.86512683
      9011.27031420
      6082.84835391
      148.40022507
      7693.61933861
      3455.15887075
      4958.10220023
      6953.12468933
      3177.71941551
      6104.41929571
      11023.23899529
      11526.98344928
      6673.93848429
      2127.48783633
      5388.07674056
      1334.82307082
      3569.43275996
      8108.22718964
      7292.89675702
      4265.55300319
      1252.55900610
      7267.85216552
      5710.60819968
      3150.65374527
      2636.17405791
      3060.04770680
      3048.65451620
      3430.46791128
      1482.22344340
      1058.20075303
      3788.04675575
      3868.88596401
      2052.42419539
      4913.60472689
      1922.57715250
      3563.23402674
      4373.88319288
      3056.18997721
      688.05507736
      1123.10088931
      353.13632838
      2764.21704608
      1203.33254599
      441.00403260
      22407.89388327
      29077.95814995
      18916.62055865
      9026.35779257
      4978.49107127
      12769.22770294
      102.85696291
      8138.86075099
      9823.34363501
      10026.96715483
      13711.38559370
      7867.82240074
      7824.86211969
      3316.23207727
      11492.90997688
      8475.49216960
      6922.52685955
      3736.79021629
      6076.08724776
      3624.70191975
      5882.61084511
      4316.84622170
      4194.15205975
      8595.31448205
      6132.02687259
      5302.19210103
      2185.57140399
      10679.01833559
      10891.91299392
      5181.95120416
      5071.12231672
      10401.49623435
      3557.24205643
      7874.06805063
      370.68278249
      5325.74968237
      6775.86188543
      3876.92613032
      7324.81016794
      7071.74085513
      2985.08531308
      4341.59331705
      1980.75484621
      2530.40018161
      4518.95886752
      2349.21297965
      3304.66338910
      3653.11789118
      2999.43855359
      7490.96110722
      2706.69084222
      2930.01174940
      4076.07728397
      -735.09031334
      6866.20004984
      4395.12568648
      3357.34351210
      1930.39861618
      2602.98350161
      2109.83724585
      4004.19001328
      2584.83851750
      -180.17433450
      1679.92960956
      932.17159948
      225.18933391
      -18378.22992136
      17188.91998297
      6508.07046391
      5360.45678714
      8507.61709932
      27026.97111457
      4746.20914355
      4987.63136196
      6712.80645566
      7913.64232873
      6160.96872870
      7435.45613584
      7278.54046883
      8872.59549854
      3735.47486485
      2609.97523300
      12278.14939680
      14531.70012827
      -698.13645755
      3316.57110339
      13010.61637961
      5138.13454212
      2375.88105251
      8101.01235042
      3541.82098222
      6779.96046197
      4577.51599009
      7263.05194921
      6962.27751306
      5991.25661416
      4354.57403219
      3187.54680716
      4264.45947242
      5693.84522360
      2822.37121896
      2304.68644591
      7006.56331341
      5872.96665086
      3625.89965605
      2366.63353470
      2071.80232303
      5746.11066796
      3802.99451100
      3687.96691172
      5602.56491633
      6167.82357919
      1218.88674797
      3316.98271367
      5967.75022652
      4229.63429244
      2588.03271839
      1711.18958508
      3913.58486679
      4379.57981854
      3206.77314150
      2895.27936124
      4256.81535962
      3868.44637089
      2375.67856357
      2777.78595951
      3204.06102794
      3181.16222543
      2090.23184841
      -594.03870180
      20.62055852
      2837.26159970
      10043.74980182
      7329.13258342
      12237.66186888
      8573.54083437
      12408.09328258
      9667.05943255
      7780.11636485
      10463.87207387
      4953.42674649
      8529.67532062
      6345.55763958
      8681.27003104
      8493.71483327
      -287.28859122
      3767.02986496
      2427.40611871
      7870.63319416
      6532.54898237
      10516.09166628
      7760.68375687
      3995.16306596
      3761.34512494
      5191.13516632
      8212.15680168
      5897.26292785
      5910.79823536
      5931.82426210
      -923.34215892
      -634.40822436
      6437.77263542
      2004.34355187
      5192.99526118
      6155.85801342
      5646.67343538
      1080.94268162
      4428.39707838
      5433.65633435
      5166.66607284
      2715.04276873
      2321.43412193
      3028.52191933
      3361.17160756
      2701.73912600
      4744.27671898
      5538.88995582
      3678.59612118
      4073.05583428
      59.12989937
      3040.65442581
      2296.95026189
      5465.04499526
      4737.80189308
      3065.29488938
      1687.23135665
      2018.32054014
      3232.69988355
      2688.87877370
      3049.00099860
      758.81985310
      1576.65348555
      2287.81818598
      2007.46046320
      2101.76176015
      -1293.62239565
      184.01232135
      1549.19198313
      15783.85518289
      12104.19620500
      22187.67319089
      3153.59833476
      4387.20953498
      9497.09382409
      2716.99392161
      2568.09335755
      6177.95778184
      9847.54033812
      11446.58623674
      1942.73759958
      7784.71133674
      6771.90237586
      7471.35062061
      -2387.13999026
      1879.99695392
      -1113.08713448
      1122.41473970
      7982.24032354
      -397.54610897
      9251.68381762
      1632.52286693
      2143.58910635
      6207.58793056
      2137.20478154
      1973.36517271
      600.99748370
      -2876.65537514
      3757.60693879
      6137.56340747
      9594.29158236
      7826.95824547
      4700.20688313
      3614.34763457
      8397.45458669
      3174.26592236
      5911.59331340
      5997.20520085
      4306.55613775
      1334.56351844
      4097.71448763
      7465.35547908
      2926.81335874
      742.14711474
      3710.87226114
      6348.95831043
      -203.32462775
      952.57655554
      4573.72554519
      4304.01128355
      1954.41926842
      4919.51942460
      5363.80600682
      3712.29105213
      385.44597913
      3484.77537037
      5114.49682080
      2337.15340520
      912.57627302
      2358.26021360
      1673.83429728
      864.53832998
      -464.46655129
      13.89411951
      1527.27092108
      7785.85670544
      10523.27051388
      -1383.07592409
      11912.80584488
      2817.65776236
      6627.08809490
      13036.66548625
      6452.38200116
      15297.25281307
      -1443.27339014
      4612.79608518
      9824.16712632
      4324.10647454
      16843.77065129
      4174.27006751
      8511.96102074
      1322.41240481
      1597.79837556
      3243.16059080
      995.04030199
      6051.49472590
      8751.02252412
      3369.49597559
      6200.14088657
      7062.77412064
      -2107.61730391
      2277.33307233
      1249.54873228
      2939.49765332
      4309.39164851
      5297.75188259
      3775.97516645
      5395.89202280
      3100.09442869
      4991.49060872
      7090.61429746
      10074.40354678
      5659.38940817
      1403.68928427
      2292.70213160
      6808.93403261
      7122.50301353
      7930.82545024
      8029.63969585
      4980.87118292
      2770.27139702
      4783.16739760
      2765.05972388
      3191.99361027
      2248.47721296
      4961.06773875
      3780.47745036
      5443.18867552
      2606.00559342
      1621.79132561
      1512.66039517
      2665.53695706
      2685.97644978
      3934.33260419
      298.08733387
      1720.68801171
      2092.89313142
      957.23644858
      1109.08008229
      1028.26132675
      747.43365254
      12833.80369615
      15522.28730153
      11119.74214622
      6559.74737916
      2691.15246360
      10371.18382288
      1082.68074479
      7418.32599128
      21020.66190628
      447.80630797
      3268.33559274
      3195.60501819
      -7284.15281881
      7670.09509992
      3987.60825735
      945.79480092
      -1806.26268458
      9953.89479858
      -5518.58011921
      5708.16620424
      1262.45060927
      2450.49905561
      7117.83889615
      813.12237258
      6603.27040372
      9821.87856886
      3399.19185523
      498.95194251
      4831.12411905
      4474.12746503
      6644.34870228
      7963.75159489
      6059.89746742
      4944.87119686
      3942.29525693
      3561.28122685
      2653.07207467
      3788.92977901
      7149.04226838
      5637.01476796
      4056.07405745
      3930.24168209
      7274.38334830
      7707.60293589
      5302.73180881
      4925.86412901
      4585.33244908
      4310.44929376
      1711.93816087
      3502.76347233
      2342.71292335
      2218.88345015
      960.43080879
      5359.57710937
      2294.75281565
      1406.04213827
      1837.31813041
      3487.53911983
      4120.58718815
      1778.54434576
      1149.68853107
      1551.99166584
      2633.66002653
      -1663.51889590
      -547.97634336
      1002.22596691
      -28338.34729544
      8712.61243317
      2741.29949116
      10709.88272259
      -5498.42618062
      1016.45540924
      10967.03818159
      436.65414076
      6464.40636548
      5693.28428825
      3812.74176487
      1357.61408682
      -1200.81904661
      2411.47954007
      2882.66614242
      642.69358169
      8971.62572634
      2714.75314565
      2909.84521759
      -4525.27034597
      2741.94227074
      2218.13344473
      3148.80221980
      7679.79859331
      5291.64461528
      -4224.60867831
      9703.22125112
      4589.39871771
      -3349.46010395
      -1027.34753924
      7022.65390139
      3308.00271848
      7782.37032731
      6316.97179172
      6584.64960139
      7655.11889576
      3112.21220496
      4840.60084317
      6011.16977055
      4642.83293569
      945.65274877
      1622.72896236
      5558.23551909
      4079.78524818
      5252.14362593
      551.58034392
      1902.28359718
      4460.37346486
      497.89551020
      1802.41147339
      2500.29996755
      3628.12215760
      933.01385037
      4095.52901250
      2278.97873854
      -1410.51489536
      1483.37058529
      1735.45297622
      3875.64966222
      2166.82405252
      1464.36181887
      1868.38348980
      3693.99632073
      -4764.12811032
      1736.15875502
      1721.92786682
      3956.50586655
      8681.42128720
      4071.59324792
      7275.44286234
      3078.12141318
      -1855.19655102
      3342.49713041
      8993.29250110
      -287.30051018
      4458.69448744
      2151.91322023
      4291.72523205
      3383.41357937
      -2798.19938112
      -5952.46429430
      2478.55498519
      -5668.04312901
      14520.16383683
      10534.83255657
      442.66716118
      6148.81699649
      5080.76858210
      5228.47108759
      875.55992455
      -344.59806174
      -400.48355023
      12274.14050693
      4391.40499837
      6488.65137847
      11346.03394590
      3434.51200724
      2685.78893804
      3124.45810921
      6589.37687177
      3463.82395099
      10092.33316771
      2109.67918133
      908.04698843
      6618.06110283
      735.63133734
      5257.38617888
      6012.29943715
      4927.46282639
      3163.30349994
      3695.69773916
      6287.51875854
      1233.87186395
      3816.67422121
      3565.84064167
      3141.22964382
      971.50881936
      5826.27030860
      1683.29950411
      2763.56850900
      3908.70998426
      895.80796314
      942.02463183
      1181.43723239
      2766.64848983
      1014.18719706
      -2839.44638712
      4763.57625117
      665.32415992
      -586.86001118
      1985.02862053
      1851.74332119
      1222.57942088
      5305.66653434
      8608.27909615
      9704.08661202
      3038.28532353
      2449.20177943
      2793.46871912
      833.36622888
      3092.72895341
      13974.96232807
      -6385.62466563
      17011.63678951
      15310.51562327
      6627.76141456
      -1116.59204999
      1000.77274893
      658.66687207
      -7884.60998797
      12397.03900152
      3572.46970327
      1837.34481635
      4704.12166002
      6462.34047225
      9781.09306276
      1907.64554334
      1121.22707111
      6799.40960874
      4096.59350994
      2477.51881734
      4053.12084218
      2662.65391647
      2097.09081665
      -513.72883645
      7107.90437983
      6493.36541982
      4195.51343294
      1669.34846164
      -1180.21571872
      4841.72015118
      7366.68372160
      2526.85413240
      -112.37155709
      123.41874179
      9049.98636300
      108.02997738
      3500.41930587
      4315.86182938
      1498.16886991
      6167.08315259
      1726.47680910
      3223.01288899
      3442.30516966
      3866.39877596
      3916.30756174
      4176.41596703
      1347.19765572
      1642.04441356
      585.21794788
      119.38521901
      1046.29538900
      128.49411943
      1484.70268070
      1454.12319846
      -253.44398859
      894.91048179
      707.32117388
      -30962.88851667
      11566.41917210
      10574.57763201
      7677.27999621
      -735.17369221
      2416.12825225
      4055.94810502
      3116.65765662
      2964.52264455
      2550.42129007
      2780.18681172
      1953.75160628
      2657.50173388
      -1876.35734665
      -11807.07072320
      20929.97517431
      6463.61810517
      928.10152061
      8122.19455316
      2144.05419050
      5210.52271918
      893.79020329
      3571.11758575
      7247.41819732
      1314.69851200
      -30.05998064
      4198.60821106
      343.23462572
      -2712.34109979
      -7517.95548308
      -1240.25808646
      -915.33166136
      4769.49626152
      2574.21197869
      764.00953711
      4653.74500455
      328.02286572
      3490.00928112
      2287.37462362
      -484.25169887
      1331.26557539
      951.54705156
      564.85145155
      14.62680625
      -5.13214427
      185.23453746
      5791.86952698
      5375.49209616
      2341.42255476
      4481.10658008
      41.67978129
      -521.56364114
      1307.43531636
      980.59590585
      760.67348127
      2125.51688031
      3484.20878747
      1355.57361574
      1295.29250523
      335.03220567
      -966.68533867
      4356.51905719
      -2199.02722300
      -1284.26103503
      599.50455736
      1998.93899834
      -19317.15986296
      2802.75182879
      41440.22012319
      2705.64144746
      -2341.55399844
      2232.35745510
      2825.86638269
      3823.76464193
      4959.19784222
      -1922.63466380
      1263.24376005
      2441.45672001
      1474.86719144
      8337.35919047
      1424.56835032
      10748.19857849
      6677.13390055
      5202.11859427
      -7728.31964156
      5900.59415005
      -1324.33896802
      2580.09413262
      -4720.25715171
      9096.59159428
      1876.81395187
      6890.47942900
      -2061.99206389
      294.00580000
      5213.62168835
      2966.84056059
      2141.72090308
      2856.24547532
      -2318.02189604
      4345.65304586
      3904.43602005
      2524.02185298
      1744.70505310
      4400.47875910
      3367.90054844
      2235.99702595
      653.12561595
      4785.23452414
      -3833.90353433
      -751.85028516
      470.46141657
      2246.18539079
      2502.21464079
      6408.62112689
      1178.61771553
      1599.87769820
      5487.73851772
      1089.13497714
      603.25831332
      5045.96758578
      5241.90701102
      2826.30108831
      2127.43295839
      553.40416383
      1632.56564316
      -148.21281191
      -1239.82160785
      2104.61022915
      1981.91531164
      -2577.03360063
      633.50722112
      -702.80920364
      14446.23358931
      11363.05539397
      -8149.80065603
      2260.82735493
      6440.42880457
      3515.27622941
      6595.00923447
      6201.96204787
      2592.94294930
      -1765.93297109
      2658.61820364
      112.73574697
      2562.97953564
      3148.81645684
      4611.40161296
      -1667.62163705
      11053.54625503
      6660.76497911
      5325.55242547
      1426.67084880
      2797.62923161
      3044.95867014
      1773.44060090
      -1268.78976790
      6163.94211877
      4284.72834802
      3093.08953975
      4854.27805450
      5978.89211492
      2295.45809931
      50.51098171
      6889.66484988
      -3851.92301919
      316.00976422
      -27.55397934
      1729.37849828
      1182.99891321
      3424.23454595
      -1168.22583980
      797.97210962
      1848.70663386
      2212.73729475
      2494.17876975
      -249.78382319
      -1345.93595067
      618.91803732
      1279.37273161
      1757.50081610
      697.86389379
      4784.75144577
      3780.72641253
      2053.03866322
      1003.69811321
      1018.28184201
      481.31159961
      2600.92458111
      2804.29538782
      297.82164227
      172.57147904
      890.61788078
      -1021.51027747
      965.96070223
      -112.05384161
      -2418.00874002
      774.98414880
      348.12247000
      1404.14377684
      6086.74080314
      -1737.45933808
      10091.30504841
      6354.46947625
      1373.51752673
      5983.62821201
      -749.24860973
      -207.01155337
      2338.89756634
      432.06782475
      8228.13261252
      -1482.64030776
      5476.72229130
      832.57929459
      5998.82662612
      2181.20005137
      -5521.36030547
      -79.85338114
      -242.39053029
      4144.65874605
      5243.94412986
      2508.90607010
      1516.46527565
      9522.87928656
      -2766.39824890
      7224.32409841
      7788.47730993
      141.26028306
      3438.93861112
      3973.40265013
      3225.31657122
      417.02365205
      -1432.74591676
      -3501.89688595
      -2627.53832559
      5196.64191308
      5371.35581737
      3209.79112745
      2030.13225811
      3091.83421127
      1864.22500376
      1115.03956853
      5472.45901992
      -1687.60974666
      755.58619186
      1209.24079160
      683.72792556
      3276.55686749
      3481.79800918
      867.90178294
      3226.55597140
      1993.80128682
      2107.05153840
      2741.89394414
      2999.88659924
      6778.65655134
      1432.91003508
      -1111.45074879
      -10.95376984
      1574.41683417
      567.59380998
      -566.16568518
      297.05754026
      4.33487094
      1203.51434607
      -40161.08078057
      6050.61562281
      4190.92981176
      8119.86253677
      -280.50654319
      4472.62816510
      14636.78656260
      2990.77084474
      4506.31846673
      -8302.04820953
      2773.49640300
      5367.81939336
      4449.94147704
      9754.10451678
      3028.78467670
      2807.65614979
      11323.77235344
      3700.18065330
      6515.78773119
      -7427.06680398
      4910.28161491
      741.81487461
      -1163.87248951
      4529.62826364
      2118.89594177
      -1086.81395160
      2825.52152008
      3090.29423340