<?xml version="1.0"?>
<VTKFile type= "UnstructuredGrid"  version= "0.1"  byte_order= "BigEndian">
<UnstructuredGrid>
<Piece NumberOfPoints="5123" NumberOfCells="5123">
<PointData Scalars="Pressure" Vectors="Velocity">
<DataArray type="Float32" Name="Pressures" format="ascii">
      -187.47648812
      -22057.07601004
      -26571.40176119
      -25493.28008765
      -24261.99582305
      -28560.32273856
      -29272.80775739
      3150.64256321
      3820.64923886
      -23569.16128140
      1404.41401669
      -22140.43487678
      5656.60403984
      83522.11207864
      -20993.64946475
      2099.44528848
      14111.52439608
      -27025.94562458
      15694.06958440
      6038.20588725
      6171.53300696
      3962.52866343
      13931.77683922
      6879.67783498
      5074.35822183
      11666.48882640
      13529.90822949
      14611.21341759
      20147.30753459
      14612.57127024
      -4144.48872090
      10082.18976753
      5434.29127234
      3375.00987310
      3623.86198411
      1363.59939643
      8496.71291726
      -8813.72869821
      14448.91027879
      -2273.00658969
      3004.41665549
      -4777.03156777
      4885.28426450
      5376.26909785
      5863.49225863
      16234.38099190
      1558.27751129
      14813.48314934
      20979.03700836
      3439.99738626
      800.05226004
      4281.68812174
      1859.81814225
      8340.38987526
      4559.29132194
      -1022.06609316
      3771.60945259
      4191.27252659
      -7336.37061828
      -3095.95870186
      -3576.62133359
      3433.12561363
      -4712.19458503
      -4445.60504384
      26.64986692
      2201.06905582
      6455.05145188
      5389.50317142
      3982.40013479
      59250.68515870
      4314.21165683
      4598.09386045
      7426.97682998
      5922.93108459
      58.34353074
      5591.95051097
      1912.03810493
      2635.24701912
      588.98811355
      3375.25295913
      665.82449670
      1220.17022545
      3110.78413260
      2009.45845655
      644.22224635
      1919.30441898
      3430.14477153
      8621.17874321
      10300.81975970
      2252.67736355
      1434.39447997
      2777.02024204
      1345.94591311
      8031.37966062
      -1322.51282395
      469.28122712
      15083.88344954
      7727.24894436
      3964.54498638
      3046.31278845
      8499.64181525
      -8075.40587405
      -1139.00349422
      2896.63929039
      -1841.98165753
      10899.54014930
      14359.32179122
      4436.54140527
      3410.17010611
      3563.56757342
      12461.34012595
      17108.17337189
      4149.72757941
      5828.21242521
      4822.12693536
      4769.50328012
      1649.47639415
      -402.77282225
      2609.23222065
      -3542.86666242
      -1068.50083044
      4108.63833247
      -1591.88742669
      2052.75715026
      1197.61124649
      -9236.55400687
      7528.45793076
      -2438.76217296
      -200.70540212
      842.76902338
      -3845.01321875
      2522.80206113
      -24148.52814249
      1461.43898488
      4331.00196613
      10950.10111035
      6909.75076242
      19843.09822316
      24542.64158076
      5025.33304555
      -1544.82286075
      3526.80585570
      9034.67662778
      5360.85095379
      4830.01996448
      8226.64459252
      1693.95740992
      660.92916151
      3922.84541206
      1801.86437809
      3545.75374422
      2451.27671872
      6612.89869211
      1459.93136849
      6947.27493402
      8422.61952218
      -4204.01524227
      1722.78186805
      2881.66245988
      3828.30279455
      3055.65287629
      2617.40290747
      2335.30196005
      1594.34234594
      -8383.53647035
      4379.76627966
      1374.40963002
      5175.12698943
      2760.85410156
      -1001.90675732
      6465.96638162
      3553.23587395
      5948.25826498
      2948.11471937
      7243.40499332
      3352.84769683
      582.92382036
      2331.26306330
      2954.53289157
      1632.36089287
      230.35093832
      2755.81478515
      -960.92153356
      5974.44496931
      -6036.12349943
      1367.05099680
      2052.62327121
      1155.01744801
      3257.84534384
      6234.52429667
      1477.41787012
      2926.27267144
      842.72275644
      4744.69534572
      4732.23023114
      814.90809484
      366.20890817
      137.19002811
      -18716.99888393
      4308.14475652
      21205.88976682
      14587.71156103
      21311.83067472
      7279.52062269
      18456.30168437
      11257.45909206
      9282.61909852
      3975.49928471
      4676.35946367
      7222.92074466
      11361.21844601
      7761.20366890
      6060.30548418
      9114.86607634
      4482.62191219
      7194.80658070
      7719.65358031
      1258.35491372
      477.20726180
      -1110.63020098
      1004.46957841
      -1614.28336795
      4358.40344420
      9978.91095763
      3818.96278241
      4506.59453898
      -1502.36332846
      12735.54653380
      16830.03622871
      12939.52986463
      4994.46341009
      5783.55380023
      12151.76308352
      4395.14844091
      -1075.51184552
      5112.83589307
      -455.43072462
      -5387.16472358
      -1834.41047441
      56.80101604
      4134.71360386
      -391.95476332
      7068.65009697
      4076.91740145
      6124.65071827
      -2168.76275872
      3418.99807605
      749.37522437
      -3866.80116978
      -2934.31293648
      3580.95307089
      2155.74711546
      6180.17991950
      3478.57006615
      -219.90865595
      1326.49731760
      3673.33562509
      2016.62849002
      801.34351133
      970.10148463
      6845.62064134
      2539.09535128
      1199.56491709
      5149.13841348
      -27399.67254656
      14768.10445864
      9127.10844744
      6073.85700852
      5736.43460433
      9271.78216442
      16581.87697730
      7761.47752520
      10431.92652249
      2855.62389705
      859.43585608
      3402.15504501
      1862.70258295
      13075.53252621
      7101.13277580
      1586.53786976
      2577.40799650
      6581.97914117
      7594.11095738
      2876.48714877
      4838.35172112
      4547.52168883
      6443.52443000
      4071.82548305
      1934.91615331
      -776.13315032
      2282.25298751
      81.10036717
      1230.07867577
      6626.16061796
      1330.52168285
      -684.22442413
      583.42421649
      400.42856286
      -323.49935302
      245.79399440
      1374.29091916
      8149.74104021
      -2883.95588525
      4272.36024418
      2010.60654310
      3922.38462380
      3763.64876197
      3651.51628139
      2891.90520938
      2397.50009502
      -13.94385118
      1238.48937750
      1161.08127720
      4865.23099010
      2421.66781920
      3094.84513107
      2595.13583191
      2248.01601542
      6194.20408509
      1036.12500202
      5796.20570032
      1141.76901985
      2218.50126215
      512.95579165
      3269.49614279
      1935.57840536
      5278.54318990
      297.59827790
      -695.72768600
      3037.80782621
      -20980.90566408
      7249.62940129
      5475.58515876
      10332.60258133
      8259.84259929
      6678.04884781
      11748.04578059
      12455.30847476
      6967.81572870
      9424.79723672
      9278.30935358
      -235.80880571
      3170.64440379
      8112.54713869
      11330.98693482
      7508.34882898
      7657.88652644
      1954.25333227
      6088.71895411
      2520.65535651
      7525.69499312
      507.44722195
      2984.79689992
      1333.78123575
      -4868.14042505
      8216.01820938
      3107.07834668
      2209.57924963
      -960.42657070
      2792.73733324
      2293.93628668
      -434.64739308
      77.41925788
      1511.50448959
      436.03071091
      2513.65182999
      -39.58709444
      3098.06368474
      1681.16366599
      1409.50837652
      1640.87655240
      4540.42166219
      3864.46545162
      5320.44884274
      3027.77889339
      5992.65452192
      1066.40738752
      6580.45509704
      2324.74307523
      4005.26134674
      1384.73485418
      3994.75027561
      3679.32830508
      1461.69358821
      1034.99838339
      3308.94046913
      1624.54235794
      7087.86099231
      2415.50400601
      3739.74343220
      4108.94638210
      159.42878502
      1099.82556992
      -3219.85139732
      3481.26397617
      388.40423421
      7996.06670616
      17614.12950737
      5363.24256750
      24292.83956857
      22105.27834347
      10869.85350453
      9359.98342790
      19121.10969086
      5587.78715317
      8099.63711833
      11754.66777188
      12168.68835653
      5852.11427631
      7106.56146756
      7348.59101254
      7830.75129337
      10577.33158918
      1510.09546668
      -947.34547857
      3418.95310138
      4572.95108117
      4760.99979094
      16589.37911527
      14341.74822646
      10160.38241163
      5127.29643511
      3091.58664446
      171.16832952
      6514.44734165
      446.21408006
      6960.54294970
      2094.25245586
      3154.70677879
      7522.68988083
      -1042.68648703
      258.18738418
      10896.19089713
      4170.44342060
      7941.44850876
      1207.61578492
      271.04302252
      5834.81367593
      1801.62636523
      3883.95509483
      8367.53587990
      3138.31245514
      365.24517099
      2411.47510267
      5423.45812614
      358.62452600
      228.00555112
      301.52079949
      -148.50861019
      7200.56946496
      -171.61650085
      330.21263027
      187.51067527
      5737.03540372
      4253.99838241
      825.47286401
      2789.36565961
      3076.57050845
      -112.34815383
      917.40240980
      -1637.37060819
      2342.26292641
      21667.14926135
      11732.25304049
      5175.60512489
      12036.13850699
      26475.87881361
      10997.04140864
      9296.60475384
      4191.62713940
      20430.30256998
      11806.17882373
      2493.00976641
      7026.93729885
      20733.49051598
      7885.46322572
      4024.40549234
      11060.17699237
      13014.80190561
      17270.29061211
      -7.55418031
      5346.45778371
      4885.69418462
      5771.33275024
      4025.45058833
      1011.65684614
      6648.07263422
      7552.16511163
      2852.74441256
      6039.87919579
      9389.81299742
      3660.33636004
      4770.48548788
      2204.88170315
      7598.25951684
      1486.13157787
      604.64505377
      2808.58360217
      4251.32802751
      4559.19121668
      5055.42160140
      1309.16298175
      1980.78436304
      650.91230265
      3064.51212493
      -1586.63489972
      2892.22339557
      1111.97290410
      1379.30435155
      874.88587991
      414.64390843
      2343.50391706
      442.44291760
      -7.96738105
      1608.26269160
      1000.42823462
      37.67217184
      7075.85805649
      2577.63593856
      3064.67047197
      3743.77988025
      4542.04271701
      -4358.93049992
      2308.06856902
      3765.20292020
      -5280.36938898
      1389.64572159
      3060.47925701
      -21336.21804100
      2076.47121317
      22710.51119053
      -9177.24068081
      9257.78846840
      7198.17833344
      -6775.41933859
      12504.56608052
      8894.84220032
      4871.06128789
      3172.83462213
      5336.02430607
      8663.11442504
      7479.55322877
      10776.04170266
      -1258.45524147
      1375.65838322
      5488.43053544
      4223.95886572
      11847.79524399
      3523.02569815
      426.06954347
      3978.97529461
      3639.78694308
      13089.31963757
      4749.36159309
      7384.13255819
      -6.09128087
      1459.19573365
      7454.02083634
      -6877.17192925
      1113.07883642
      -1257.04733865
      4639.62958918
      13927.75133314
      -13.66654816
      5092.96888502
      501.44444761
      516.82053739
      5630.16006718
      1139.76744304
      1842.71129317
      2023.11396753
      4543.76797699
      2517.43731988
      4724.94745375
      -2925.04895626
      1718.24645761
      1822.79908212
      3129.72076548
      3059.32363228
      2409.34362119
      2922.78838201
      2397.95283158
      1433.06723128
      2429.62751590
      86.35755122
      2104.60199256
      1356.25983675
      -14.96097478
      -1856.54154946
      1299.47902909
      799.97551700
      1445.09090235
      866.16220664
      2972.22024022
      7669.06630961
      -16161.55176151
      2330.75832917
      -11421.86426373
      3289.43874121
      -8510.43169879
      5435.47289274
      16048.79714035
      2043.73165759
      10821.58479485
      7591.07189013
      3013.31802965
      1606.52112758
      1906.87297574
      3171.33876869
      5440.78642870
      1585.76080798
      2199.34286686
      14358.82125977
      1097.15333056
      3196.68267859
      2190.24412097
      69.88258078
      2467.24067449
      1068.88399133
      3895.64369189
      1918.46879275
      1601.64981291
      -703.32857768
      2475.03546402
      428.70630949
      336.44347081
      -775.49310482
      2989.34835268
      1898.60540911
      4194.36385208
      -2307.09628010
      645.05815957
      1648.41736218
      583.22277436
      -1505.64663951
      1765.71389013
      1320.65326713
      337.21042419
      1604.92837876
      2831.33088428
      647.32394816
      188.17276584
      -1533.14452781
      276.67837600
      4032.33345751
      -562.29924623
      522.79608663
      2529.95584398
      2748.38766832
      2930.00697969
      4573.28804805
      1141.98002614
      947.18968819
      1864.51355828
      -71.52057052
      -3083.56858978
      -694.25587240
      -778.67912241
      5798.12238553
      1949.71436886
      -18378.22992136
      -5122.03323266
      249.53732428
      1284.62450289
      1117.57065387
      13258.99409195
      6511.94297508
      5759.43534707
      15240.43984066
      3843.37822185
      2263.70270396
      10808.63520666
      3548.73201801
      15111.67248418
      3830.82687066
      1636.66049091
      3753.72561763
      -230.88517892
      -1796.71850661
      -457.77859232
      2412.27191568
      2167.86988192
      -657.40052089
      2967.18083063
      1718.03355682
      507.02466532
      131.68448906
      1523.26222422
      -1206.06356973
      -1331.56894824
      213.00600650
      6225.30821279
      370.15332255
      3502.13192317
      2714.11450006
      1157.89844537
      103.79554283
      2563.19686926
      94.22412633
      966.41977075
      1181.40489485
      1115.53831771
      754.31780003
      896.29370279
      1960.08479152
      2184.76038089
      662.91591991
      2712.41913499
      310.16418393
      1218.24117944
      1047.76240313
      3785.00107636
      4010.78926111
      -798.61291785
      -94.50426700
      3055.27862837
      4213.02790024
      998.63552416
      1045.25523359
      874.35249336
      3251.26814448
      1914.16015343
      -199.68581768
      4778.68417967
      2418.27164685
      -1342.75639971
      -15857.23209146
      18270.63098025
      17009.99706229
      3744.03137268
      6890.98281578
      10552.00089737
      4252.15672348
      -506.85379055
      1485.65336771
      14471.82621807
      8448.90820906
      4106.42877903
      4120.93356863
      9683.54987110
      -74.79661140
      2463.17227995
      765.36277176
      113.86626036
      1076.66249315
      926.69197656
      1352.17471979
      -604.69834002
      1626.56940103
      1551.01944573
      -4872.44758298
      -673.25488043
      -479.44812029
      -688.43104016
      936.61968263
      1688.83648757
      1225.96462806
      394.68862549
      540.36113914
      -1802.40940928
      1696.02092898
      -34.32084486
      2369.10590817
      555.03171700
      3526.99259609
      -1249.20954504
      2221.73582605
      738.01251380
      3892.20075021
      3776.60095524
      4417.02226486
      2768.91669628
      1712.64778802
      -31.90997712
      343.99281889
      3586.85410288
      1974.35426053
      2280.38799089
      -1470.50006267
      1468.27330334
      -892.74819719
      -163.86737630
      1294.27272736
      2708.66474297
      4281.57749356
      2964.73978258
      3015.46936929
      -1443.24736241
      -1178.12429414
      2211.38674205
      2870.24058914
      2866.48257173
      -7670.53798646
      4215.74400106
      -7079.65675806
      7025.16684068
      -798.88626462
      3718.03178535
      5354.16690742
      4827.86191903
      3477.03279843
      3716.40292116
      1885.64637870
      1945.56135615
      1515.00387330
      1026.48688891
      1604.50096300
      1234.12362331
      1491.25772044
      1847.34047756
      2463.52001436
      1074.21364758
      1409.05809260
      2508.32826007
      1132.11020900
      2044.42964952
      2109.91733414
      3144.62713211
      -1629.10760054
      808.16476466
      2635.29140909
      367.61344704
      -2455.00569099
      2415.12029386
      934.29434324
      1922.92915001
      -505.60662902
      2454.73445538
      881.37382855
      336.91386530
      566.42676791
      1570.61258164
      1489.77605278
      -1032.71617811
      1407.73544707
      967.97763563
      366.05670077
      1722.35522968
      2493.47154453
      2188.24450792
      2233.43543082
      -999.53856905
      -1361.89395070
      1305.83763281
      8.65864056
      987.11152200
      4871.16699353
      3812.82244848
      2409.21998475
      1875.90287697
      1111.01409447
      -442.91457921
      -2053.54803517
      -63.53731121
      2735.74761642
      4264.51291319
      4134.40147521
      2268.06474701
      -7886.36499036
      14046.81988463
      2028.34983766
      -1964.75802825
      -1416.92605978
      7103.80435995
      2483.46290254
      6463.58936175
      2539.98980020
      5336.55387485
      1920.58388165
      1683.47025009
      2730.99084671
      1623.37535643
      -1819.65477643
      2547.96411286
      2838.79023156
      -1022.65556004
      2449.09205101
      1740.93442657
      48.59929783
      30.09480697
      1041.79807065
      1805.70480181
      1435.58650979
      799.81405709
      362.29912571
      1408.02318753
      2117.51663811
      1449.55017627
      1837.55807152
      -1417.78983311
      663.02703212
      -1454.36867271
      -298.35701338
      543.71367241
      1848.79241245
      393.20921471
      3137.48499853
      1447.56956179
      2287.54057871
      2156.94304495
      378.55277851
      -4.69013876
      -795.29587505
      -902.43537046
      322.04333850
      788.63102843
      132.33915110
      -717.53702817
      2132.78090977
      1671.14738271
      663.03548827
      4503.27608747
      587.38528986
      1321.69476441
      2683.67490445
      -1019.59163241
      -965.66395611
      1448.07054014
      2243.26985864
      1563.56064688
      974.98510429
      3144.81870501
      7359.76684915
      1578.35989772
      13979.22038567
      5178.23658097
      -27919.17237965
      6380.05927911
      -8077.53193685
      1924.49639093
      1645.27187134
      3156.12266691
      630.58175096
      3047.24402934
      3123.73079847
      2039.74327049
      492.88636851
      508.57089233
      -526.42022587
      1452.31925552
      504.18165680
      2627.73283840
      750.21074251
      4930.01107142
      1037.59390743
      1704.44033610
      797.84205392
      814.10531661
      1400.40058621
      42.14279055
      3114.30030847
      1002.69910244
      2527.83276775
      496.31214875
      693.60768400
      332.22232393
      422.22640279
      3194.97068484
      -1058.76419323
      2694.37674279
      -2539.94605145
      2258.21115829
      1648.25304452
      -626.39605430
      -733.00713029
      -286.81883753
      2441.19423359
      1174.53085874
      1205.14269624
      -38.12580210
      -44.37045697
      2.99028158
      3739.25968968
      -3617.42717760
      2150.25954781
      -8.97925634
      -437.20078427
      1805.70751402
      935.58986470
      8265.63266167
      2268.68969435
      -1159.31609917
      -108.46066701
      1935.86579421
      478.62433502
      -3297.30506628
      2504.65459965
      -944.55194981
      -2774.16153066
      -4885.62711793
      -28338.34729544
      10787.31208276
      7224.26683697
      2369.48742293
      2359.95307758
      3715.48032930
      997.03390791
      1438.12096697
      5606.46755316
      1150.37610303
      3932.50600207
      4143.64920228
      1787.04126551
      1522.15153305
      213.32672212
      -517.72781955
      949.77540289
      1202.05879972
      -199.37580536
      927.40155761
      1583.69337342
      350.19060787
      3164.84127387
      1147.58407655
      1406.86614029
      1384.71500006
      2505.21052368
      927.07954104
      829.13570910
      824.52352886
      97.96030339
      -1208.71815033
      2936.89097959
      812.12988249
      474.02014463
      -2974.53338853
      -270.16263010
      228.31863514
      96.59916957
      -396.84077969
      1054.04258836
      670.59901605
      -433.28421168
      -80.58646375
      1317.00410093
      756.57315266
      3634.06023772
      618.52536562
      1626.22146570
      662.35995862
      -948.64785328
      -63.72448350
      -194.69290933
      177.57524754
      4611.85917641
      4542.93047539
      -5267.63357794
      -5987.77710684
      1381.02943021
      2145.63020558
      12595.66076154
      7741.49722007
      643.47937361
      6929.33438032
      2774.19340299
      -810.80434612
      -22636.73269539
      -4033.45577273
      5011.35039479
      2947.32906247
      918.00882576
      5007.92317855
      2233.27697591
      4775.10041473
      1781.07316137
      1265.87728281
      4136.86618480
      314.92686371
      -788.53647587
      560.40812879
      295.59082491
      891.43567784
      565.75891244
      1090.75337794
      1317.88587822
      2037.75007840
      985.08964579
      -28.28591965
      3457.48867290
      648.80619475
      2087.53890550
      2099.32316121
      930.07938478
      2182.79322624
      567.07310906
      847.82500680
      -1267.01336020
      1068.74376795
      -910.38558811
      -939.77323565
      872.15585331
      533.90949383
      678.65653872
      1026.22822319
      752.47487191
      -3014.72021793
      -245.61103979
      -695.73299429
      436.41078979
      365.99450271
      793.28882983
      -37.96651475
      510.69917078
      -1662.16106698
      1214.85191285
      258.00590203
      1046.46070117
      -397.76602104
      -84.51581688
      422.03197392
      -364.39256257
      6102.84865884
      2662.96506214
      -3318.10447276
      2871.68117707
      6031.73529196
      5033.38441237
      2883.22851381
      3305.23217755
      4630.05762147
      3317.84891267
      -2938.35281273
      2728.23365687
      -7330.63361426
      5052.38540160
      2683.45488768
      2549.67405214
      2359.32560543
      1597.67337682
      1601.65219271
      1045.15807976
      103.61549725
      1381.75804622
      637.31879214
      1094.01191799
      542.24076533
      1540.71221992
      592.11527015
      -319.63582852
      1450.73731034
      -808.38665495
      -488.60928622
      1224.58832064
      736.91750366
      3173.80443455
      1840.17259579
      1452.09049485
      2133.11166424
      2727.72557198
      1460.70205655
      1272.39113405
      -538.83585221
      1335.51737903
      629.79229163
      833.35147628
      954.28156285
      -2263.36481656
      140.95141783
      -3720.77891870
      -1708.16233939
      671.42360029
      1671.61015554
      782.09454850
      3888.06718748
      1211.37939526
      -5687.35558512
      717.77600882
      1.40324131
      -527.70606848
      -1543.59933794
      3045.06040675
      -182.46508086
      379.91844323
      2129.74552813
      205.24521467
      -928.20663802
      -104.42719564
      1777.50933234
      -784.04728074
      -77.63114268
      1099.50395634
      2200.37698937
      5330.55397856
      3727.85928871
      3462.52003468
      -4149.30789523
      5277.27998723
      2566.49110485
      -30962.88851667
      -5678.75686574
      2654.26782068
      4638.12718831
      -231.45910518
      3346.22333216
      2235.58338058
      635.05598715
      1053.47138833
      4607.75583326
      2122.83993990
      4643.00768128
      1951.31484232
      2527.54550644
      1236.57986207
      2120.60362571
      1528.12049566
      -15.85600133
      378.54809098
      -3034.95234383
      572.78099097
      -185.60812456
      1971.14346412
      -463.49379013
      300.25240606
      890.53109081
      2397.87848528
      3622.96231100
      1905.10828028
      -609.34810110
      251.71777564
      171.27688010
      -612.84178073
      800.13322531
      1337.56847895
      2238.79600139
      759.44166643
      -2076.58869144
      -2425.69020714
      187.00204903
      784.58159715
      -885.26550336
      -180.58010346
      -524.99429040
      -461.25477071
      -1397.73613497
      3873.04400812
      366.71490410
      1191.59161094
      874.48098472
      2.21162791
      -924.35360115
      3022.87781200
      8126.25662756
      -1634.28772993
      -582.41078868
      343.43657298
      621.80919807
      4795.49829871
      -217.43001062
      3443.37232874
      4154.37584711
      5102.98491198
      -464.81593290
      3855.42554246
      3161.58860008
      -19317.15986296
      3439.32525334
      4327.02974146
      7607.60309259
      6355.99611115
      3986.05810439
      8984.58715045
      5032.25596400
      3751.05467412
      2791.89854877
      4081.17109881
      1324.82002002
      1501.33199346
      1856.50772513
      2113.83588472
      2138.39501293
      2444.70565788
      2432.63190259
      629.47487639
      1541.77837509
      1488.40483453
      339.84020767
      3301.11030037
      815.18997629
      2566.20165823
      1060.41385187
      864.42529726
      1578.92896757
      13.03163748
      1309.28326850
      2167.27526294
      2700.29255530
      34.89305974
      1503.25881000
      1705.40667413
      962.61848269
      55.90588967
      -1840.87566928
      1332.73854488
      -171.46206704
      406.22208053
      -634.87936516
      1463.52608087
      83.76068917
      -1646.05283770
      386.06344201
      -409.09268585
      -1100.60917453
      1625.32470908
      717.75039400
      484.00659263
      -2227.26883095
      806.82538263
      5658.28224390
      335.70813419
      723.57229873
      4440.28796441
      144.37257419
      2853.40680735
      2318.73589860
      2334.44645508
      4018.23933388
      2603.94560858
      5104.22149535
      1571.51864667
      2861.50289563
      3211.75720808
      1009.27610082
      3909.41054034
      3687.03475864
      2337.03167640
      -3109.37170248
      2604.86471452
      2597.62691887
      3490.61368643
      2146.63494502
      2738.71716016
      4432.51484308
      1365.01550139
      4929.40594400
      3197.65531248
      173.25571301
      2076.28663752
      1106.86201684
      238.20832743
      -301.01504728
      926.02515860
      -134.19076857
      2083.54771261
      1272.97328156
      976.29502680
      1160.71284392
      6372.35467788
      2361.90556625
      907.40432364
      917.86827710
      2048.11550746
      1398.64496823
      -1353.17964620
      1558.17735582
      -371.71292787
      2150.12112715
      -214.08370750
      122.92281636
      -915.05787346
      231.36982156
      -632.00656470
      930.27503025
      -142.79457888
      1063.77477301
      1068.86505180
      749.37008989
      2334.32296324
      -2476.94973955
      201.85686742
      635.85170960
      254.97706393
      450.65370234
      -409.58870623
      155.56719429
      -2723.33706801
      9409.67560312
      1748.97500601
      1197.87479843
      3705.57591558
      807.17824641
      3212.29123674
      1305.55713695
      487.26075177
      6090.56036738
      2590.00573404
      12246.89716156
      2720.62115944
      1351.07896724
      2085.29591526
      2257.44118148
      2786.28189465
      1324.84949073
      3235.05762531
      3634.93361380
      2536.51102621
      1841.62693877
      3585.63639899
      677.47482512
      2175.17282072
      -952.46739094
      1785.87997658
      1174.13630137
      1099.51613965
      147.22001478
      2091.10659612
      2276.26209313
      2057.11668190
      3223.98789373
      995.54435768
      716.58430857
      1677.67697098
      1041.89399083
      2253.25840982
      564.37171379
      2017.03301404
      1035.41332196
      1083.82917945
      1590.13530769
      -595.09990821
      1018.96263641
      239.71960873
      137.29482026
      -304.58647317
      672.67847001
      457.89656900
      -1928.92714366
      564.83223874
      -442.42175019
      228.34980863
      -1354.44059948
      3389.65629216
      3590.88612817
      573.02054098
      1073.91808482
      -2003.26617821
      85.88833832
      79.97516178
      -97.43980766
      398.54062259
      2657.66425604
      4725.80332793
      3353.14642967
      -1450.56805102
      -3188.28480718
      1694.52791758
      3764.13220055
      2866.19207009
      2783.66423267
      1452.28275269
      6586.55849686
      2120.20342169
      1493.35734544
      -40161.08078057
      4388.61113416
      2865.95813589
      5712.88146316
      5010.08479679
      2878.00708261
      3153.56130972
      2148.81981663
      -2714.50387064
      702.89588383
      4682.76401345
      -59.25497616
      1025.13992078
      2016.66672689
      2780.30782299
      301.54403692
      1353.83767649
      387.25937097
      372.94561877
      -296.25072573
      978.62579858
      980.31954241
      1007.02366581
      657.47640373
      600.04836472
      797.15237281
      2221.59330381
      722.97756150
      209.19742021
      326.70119506
      -171.29546687
      1657.60482165
      560.15664480
      2412.39233125
      3090.71959894
      993.16289299
      416.52374964