<?xml version="1.0"?>
<VTKFile type= "UnstructuredGrid"  version= "0.1"  byte_order= "BigEndian">
<UnstructuredGrid>
<Piece NumberOfPoints="5123" NumberOfCells="5123">
<PointData Scalars="Pressure" Vectors="Velocity">
<DataArray type="Float32" Name="Pressures" format="ascii">
      621.53041726
      -18750.72539364
      -26061.83862372
      -25493.28008765
      -24261.99582305
      -28560.32273856
      -29272.80775739
      443.16254381
      116.84662326
      -23569.16128140
      703.95217814
      -22140.43487678
      230.11647189
      -511.08759412
      -20993.64946475
      610.49400789
      675.71364104
      -27025.94562458
      862.72927451
      -473.53948723
      -79.37192573
      906.35274330
      -98.06246042
      1525.08122745
      -102.73794015
      809.76511741
      890.68010057
      -595.79979388
      347.00615271
      259.41882939
      200.60854046
      1273.76292952
      -909.02644576
      1231.69790499
      -2.58225058
      -13597.88514493
      3827.98157052
      -8972.20737476
      8443.34238457
      960.69967648
      2050.74729410
      4813.17986479
      -12920.06481363
      4273.31702580
      5887.60588616
      20219.94557084
      7072.96108662
      7236.67185520
      -10461.68146855
      -635.12388684
      2681.17252105
      2239.51519019
      3761.90950479
      6890.62057847
      -1602.54729011
      3214.30406011
      -1609.49185867
      -434.91581832
      5026.98297566
      682.07063164
      5425.86739680
      2347.75278175
      -2096.06257066
      -11.32068665
      2470.90302213
      -1900.27255295
      4542.85535426
      5389.50317142
      1199.44700897
      3906.12238191
      3467.40428709
      1177.02142317
      5381.44192891
      2321.35402987
      58.34353074
      1426.15733895
      661.16184880
      2635.24701912
      -245.63039509
      -161.48911084
      -236.80185032
      -444.15034411
      -125.14925268
      -162.79359174
      644.22224635
      480.40665357
      516.24623999
      440.57702076
      -31.97754778
      749.24696308
      5716.36710345
      632.52567073
      213.77097151
      419.87517015
      1594.15211390
      -790.47552216
      -804.00372301
      -27.35111574
      443.20039355
      1730.04630723
      272.39256150
      5004.43805491
      1880.40274500
      938.97738829
      890.83958739
      2753.05460791
      3456.71865557
      -1364.47930982
      21159.19588842
      2703.91718028
      -881.08590577
      17.25810238
      1742.86630273
      -1714.94432290
      -4048.08433030
      3522.76794094
      -15678.50970469
      310.65332642
      632.74307888
      718.24301142
      -5297.37797455
      -1309.50476533
      5651.87161749
      2063.68682916
      1308.06913099
      -2344.87129617
      -750.96853059
      1686.66806363
      -1130.70209431
      -109.86604429
      -462.53832542
      6185.03474836
      -24148.52814249
      -374.70768731
      242.61087488
      1619.56195568
      1843.69830254
      3359.75557441
      2126.29966494
      -443.07417538
      -1544.82286075
      477.76644433
      1383.42363051
      664.96568042
      335.70695972
      -496.73691951
      752.53859421
      522.19232229
      -120.30468593
      -651.10225711
      1045.39557355
      463.09897972
      3599.94537081
      573.50219995
      -296.37594262
      3001.19546855
      4101.67520839
      -629.54696127
      -93.59367589
      5292.71332528
      201.73829501
      -233.55630609
      422.42309631
      704.69319564
      -5579.12272748
      -482.08290418
      1091.29175821
      321.35380498
      428.28318161
      -310.88110084
      -100.68343694
      -2875.97556097
      15258.96575738
      1078.38022701
      8111.30111247
      -1462.07498341
      -268.14938681
      4721.02335002
      572.37058972
      -125.46561642
      8899.60868616
      -42.08253224
      -1415.91653994
      3457.77813299
      -1389.76076753
      -11429.02167818
      3140.49303470
      8122.17459114
      618.47890483
      982.20579632
      4237.75145008
      1421.74097340
      1593.96879455
      49.85020953
      -1475.29249422
      541.71870183
      -87.74265669
      7091.34468525
      -18716.99888393
      263.17573914
      1532.44016099
      1710.61785714
      4474.86199411
      921.40097369
      4840.52257130
      2968.59009415
      1322.85316301
      2350.46743591
      5736.06420800
      2351.67315665
      5263.96095243
      2851.89196476
      3384.07258773
      1199.17102049
      -366.37259043
      3244.68425389
      -25.54087537
      931.44114098
      1220.83860267
      -1201.00097445
      6821.76647330
      1940.88173506
      6538.47391547
      1110.95788478
      -196.51348333
      -17.21938928
      746.38839443
      1003.11962086
      5389.32475197
      -5180.62269807
      449.32275268
      859.29772320
      12221.67091570
      11535.63153680
      2779.89427667
      4154.46065234
      -1793.52132323
      6875.49887342
      -869.82761182
      9363.24522850
      -7332.53740107
      4171.93208207
      4098.89461335
      -404.71011274
      5700.42179771
      2675.79020333
      3399.69751515
      7176.35538161
      8488.28572592
      -102.75355723
      2912.86488969
      -6330.96305347
      5070.05266653
      4889.38206517
      -1981.48645115
      1085.53300005
      3007.68960195
      2530.07157974
      2987.15001873
      648.46551338
      2123.06686191
      2888.77633222
      2182.92343878
      -1450.70797858
      -27399.67254656
      2644.28353419
      4230.57755854
      2928.53845723
      1947.45760382
      3767.24701095
      2055.68928061
      -99.20582200
      824.80009689
      1323.47809991
      2063.75973164
      280.47858528
      1775.42365504
      1764.76602534
      318.41919022
      1801.93188799
      -4635.73169587
      -2685.44849356
      -1568.60529364
      3030.42636756
      -94.98629474
      7775.57249335
      1481.48953995
      1233.37655236
      1273.69517321
      627.54029426
      1379.43287651
      649.01286129
      6.76048032
      410.65939848
      1560.13865318
      805.96780477
      2014.13645053
      1254.40353489
      1132.15214641
      -510.17994156
      1300.18242407
      -1422.69241392
      2862.99757802
      853.63349289
      4935.81096437
      -1600.81728058
      -56.23685521
      -1059.03672528
      1316.98723920
      -407.63277109
      1702.46574095
      -6803.66346661
      -342.26135700
      3210.04853811
      10316.24439359
      -3772.05703920
      2316.76948952
      326.37622626
      2486.48282487
      -1197.49822367
      4977.51594728
      2930.57478933
      1510.79117832
      745.23114475
      2180.83005626
      3825.39809673
      399.38392727
      1559.58369704
      -7127.90599836
      7357.83520526
      -20980.90566408
      4238.64041642
      2053.36817783
      2523.00669009
      1390.54766415
      1866.73402558
      6300.84090737
      4796.90460957
      1578.84073617
      4784.44932124
      4056.77075392
      9245.40103674
      4795.13924193
      10146.46944495
      4774.79166837
      -3275.95688515
      2548.87135273
      2397.11974160
      3372.48383967
      6692.61940116
      7339.36156752
      945.71317759
      1409.98049477
      1388.98638178
      6585.64797671
      4727.46835056
      2985.86502861
      -122.89207377
      1265.22869791
      2082.22140922
      -412.71758579
      870.78014276
      937.86328044
      -2336.05715370
      1022.58035883
      1833.90936886
      5142.71609503
      301.38702423
      2560.64694843
      0.85997336
      2754.13804441
      4396.56096995
      8012.19270157
      5230.61490553
      977.75996925
      2592.47675348
      4246.15654424
      2396.19263441
      8390.71080601
      -2014.42335453
      6503.96647720
      -2609.68368837
      5581.85637355
      5733.83256382
      -1735.93154929
      4774.15967920
      3021.24538636
      6722.43567735
      1415.67136581
      4397.52816686
      -1239.34364070
      532.10277015
      2015.37437076
      687.49483717
      4431.56899679
      3597.13543290
      2306.97942335
      6555.59503717
      1372.23651613
      7276.65030142
      7891.77997348
      13781.50634864
      5572.67900764
      -195.85525609
      9565.90959457
      11514.80771475
      11481.21182548
      4930.81398957
      3623.22585658
      -303.35732302
      6227.29510962
      8798.27865850
      6434.96532004
      947.33987807
      3589.50924044
      5163.23818247
      -588.79454745
      2688.37022515
      4211.00756458
      11819.86110009
      7306.63541946
      3652.30186720
      4263.24150835
      5242.95032077
      2040.77012532
      -69.64661339
      5325.08886775
      520.41956675
      3375.90489785
      1553.10285019
      1955.94483368
      -266.92623812
      5738.40089120
      -79.95411559
      8413.99317162
      4472.15944243
      3822.73278590
      1392.77180967
      50.00109094
      2699.91172472
      4101.14901018
      1839.86570567
      1699.66593007
      641.22244444
      6551.41020440
      4074.28194056
      2709.65572580
      4393.06993392
      2365.74781347
      8989.95139408
      2657.78452781
      1884.39607491
      8388.57516761
      2121.24349833
      7617.89910714
      6364.36967389
      -481.51118316
      1174.93611651
      498.19592917
      6686.89399136
      3465.72079672
      3980.10596665
      5380.91718493
      5329.93216862
      8590.02260161
      146.89068974
      13596.72646716
      6000.07711121
      5296.43682168
      7619.20070169
      2692.12954915
      6189.94919140
      2087.62342946
      8133.61421965
      1123.57758589
      4352.94779509
      2992.00575452
      12184.56919237
      3126.19061584
      4887.81029138
      6927.37451197
      8256.63829805
      8801.54718370
      1496.01933615
      695.31786355
      5996.45266594
      5235.51675269
      7163.99002032
      2244.91870634
      9642.57047653
      6068.56071050
      7901.41638817
      5069.97087370
      3200.09510755
      2654.75159330
      7685.82624951
      4196.39849961
      3849.32923657
      1171.55118098
      1999.78888278
      909.86274742
      1666.16309258
      8006.43118881
      2792.24372925
      1040.50025600
      261.51488593
      -24.67217823
      4899.09312820
      2698.30537081
      5096.14451578
      167.27822993
      62.73967424
      -4365.62688885
      1869.61848146
      790.99782299
      10818.11660445
      7064.13893265
      6028.75369384
      1737.15677743
      4771.24308255
      6253.35053020
      3592.37062417
      -1274.22870490
      -870.89175262
      2572.12336540
      3474.25343901
      3099.56787962
      4488.69566540
      -21336.21804100
      7037.00051492
      7909.38652766
      -5561.31143403
      10886.17547604
      3671.15956931
      17623.92586732
      10480.40107202
      11230.69062241
      -1161.56606354
      -353.59482707
      1559.00206193
      21219.75207439
      7577.42990864
      10077.03752809
      1294.58958002
      -3408.10640426
      7130.71427992
      5744.53085507
      10877.99733925
      6227.62783629
      2021.28388485
      4573.60469981
      6343.75108547
      9767.68646804
      3310.09769273
      5675.25381857
      3962.10170167
      2191.10231988
      2038.51111652
      5706.69198215
      2561.18631681
      2202.57050085
      9808.53290097
      5997.78502022
      3365.48125274
      7890.11586366
      392.19331226
      1725.96834776
      10802.43900258
      3915.65780410
      3660.61175625
      2745.38695078
      280.77573852
      5158.10293280
      2927.25109632
      532.48507029
      3245.05120018
      882.61243170
      2742.59565119
      3480.86831507
      3021.36367316
      7104.38989446
      8790.63960488
      4187.42294073
      1511.57020992
      -1397.94422239
      1479.54926646
      -1192.44888423
      6094.17497074
      -659.05776483
      727.96608874
      3090.35226939
      2265.96039343
      4422.46689306
      2626.05449014
      1745.67240093
      -16161.55176151
      2781.95210458
      6154.59257053
      1406.14199876
      5210.37979488
      6179.80776708
      4888.22583279
      27688.27319265
      4059.79025316
      19172.76869025
      14643.40177027
      3969.29528645
      7578.10829390
      5496.93210694
      7154.77528684
      3248.60762822
      4422.17682084
      8959.42444809
      4635.37061651
      5238.00617151
      7156.73739086
      3193.21140990
      3959.97790846
      958.78207826
      1754.07473016
      803.45724857
      3701.66407188
      2582.17705442
      -1488.72947196
      1312.66325157
      8701.98547860
      4283.69730959
      1124.66858566
      10328.73873779
      1601.44331432
      3177.63852643
      5082.92653733
      6944.07200896
      -74.01982971
      1695.48472239
      2836.24687330
      4891.18160234
      2500.26696263
      3431.70416963
      2871.69025792
      3440.95122281
      -2759.71512747
      2939.37214669
      6294.44130068
      3665.46702812
      1023.88675315
      11098.95267829
      4290.10503259
      2365.82627431
      2562.43179562
      2295.66237412
      3951.46542746
      -1723.75737419
      5107.03276870
      -2933.65714527
      -6155.45704783
      -165.12133722
      -3453.13768749
      2949.11741828
      1238.85492381
      -18378.22992136
      -5122.03323266
      3263.52007697
      5368.37311170
      7375.53797989
      4216.60116976
      10632.88723951
      5931.81185009
      12872.68832469
      5250.59882565
      5736.97861434
      7760.98354350
      5691.50767964
      -2864.18979521
      5914.73089851
      4432.79373390
      2288.59388695
      688.66082271
      149.87100468
      -1740.38410110
      2735.22727292
      -173.90391985
      2262.73162818
      3621.52533554
      1773.92819343
      2633.57513547
      -929.01895602
      172.50654829
      2797.54607600
      580.34969021
      1036.41963774
      4376.25342407
      1995.26112374
      2538.86782833
      -150.22788105
      3343.33037640
      2500.99951417
      1108.70248127
      342.36924199
      1596.65108226
      8106.36306043
      -698.56831066
      3300.94064802
      4479.63943748
      3052.93778797
      404.15130816
      5299.42686710
      7192.96815217
      -1403.97754563
      2843.20772052
      1013.98893386
      1107.68435285
      1067.61310863
      4542.26035809
      4232.66838636
      -1626.61630709
      1705.20787817
      -1714.05063091
      7939.96183175
      -1522.63134649
      4209.66448926
      4216.25380497
      2982.62910056
      902.98220795
      77.60912757
      -1176.75861127
      -15857.23209146
      8362.17934735
      372.68626855
      3750.44525230
      462.78443812
      9957.10027553
      8038.67600516
      24987.13586262
      10758.63549987
      14491.02841784
      2226.10649624
      9347.10295048
      8605.03071740
      18334.91682577
      4048.03966174
      2488.22387977
      3426.85418441
      1476.98666747
      1124.17806150
      1014.51555240
      2070.40906701
      3578.13134897
      2261.44646365
      2376.25523410
      510.62365429
      -1023.04644560
      -2146.71313799
      -2635.83815204
      -806.52322183
      4207.83696511
      139.53145801
      -3763.26127634
      2995.28545662
      2454.79758190
      5476.69325004
      1265.32463160
      472.05262295
      4554.57197177
      1684.84817206
      3413.09507377
      1893.20541056
      579.86730995
      242.03772840
      1691.86122727
      3369.37350389
      5603.65539914
      -177.20661710
      -1554.34252545
      4232.80536425
      5233.71867862
      -32.04537270
      2000.61056415
      1280.64452037
      1244.88697689
      3598.09439639
      1804.75314447
      3122.00076764
      2275.00513890
      -2525.42528492
      3218.68913449
      3794.00051249
      2462.28149383
      -1538.87177002
      2850.66404398
      56.09026803
      1272.88247275
      -6274.03160085
      4814.39831099
      16193.70740230
      13680.81121417
      3350.69390647
      1708.63708436
      9213.61656702
      7858.46811958
      5228.13982199
      11530.51664795
      1278.63884559
      4747.98749974
      722.04860825
      4105.92675398
      3495.20626725
      1012.25097911
      3902.01346430
      2128.79059071
      1236.53274147
      1851.50023422
      2050.42680510
      1624.56847305
      750.59660353
      2023.22606695
      2326.94409681
      2344.53937814
      390.44833778
      1904.12004193
      3346.10637353
      4504.92555384
      2778.80645247
      1044.57225003
      2783.99938574
      3783.72778218
      3514.28374729
      837.40210557
      1878.95923137
      1209.09199019
      2286.64560470
      -461.03758317
      -1821.89810299
      -170.31207750
      2078.10986660
      1332.46052305
      94.53294146
      3011.62562518
      -496.66951386
      2102.08905608
      4201.96811649
      1876.40743987
      3381.12458396
      1809.90252587
      1330.17709876
      1691.80776576
      1234.06391328
      3983.97704325
      887.13568595
      -642.34505158
      4414.24740737
      607.60326846
      2753.55375158
      1288.97104844
      811.15236258
      2724.32193470
      6699.45778596
      -11.27682270
      -7886.36499036
      2953.14096550
      1441.25986858
      10814.59931184
      16986.59180854
      6208.90011650
      3055.50090960
      13735.33122677
      1245.84879320
      3106.89281909
      4317.75058726
      3410.70308933
      2103.82347669
      4714.61667451
      1146.62286247
      373.17290939
      740.68769875
      -261.44866011
      -1365.90963675
      1193.31910368
      1776.68824770
      2062.18545591
      1706.30864515
      1708.74871342
      1587.53842933
      350.78873527
      3746.96083948
      3020.21061715
      2008.32660490
      5820.94006443
      17.53955094
      1234.41526156
      470.40443503
      2304.86875824
      121.59647966
      1065.92165155
      5399.20475670
      -6.45025555
      1238.43300177
      3002.53825521
      5655.24806624
      3349.37452908
      4396.65454179
      5649.07429692
      -1769.82795398
      2934.81908484
      2644.95892739
      370.50334475
      -1243.00160914
      2.09216114
      366.56864460
      -1349.76356108
      3866.73844362
      -3360.55528606
      -1140.16343853
      458.24252444
      1759.75027665
      2229.32407844
      -2690.81626998
      2923.13567599
      183.46975545
      868.24459785
      5900.04256122
      7359.80648718
      4033.76326622
      596.16966763
      6470.89741718
      16973.15038994
      9678.08327733
      2326.44622602
      6897.03538472
      2504.97533490
      2349.35356905
      2704.90374971
      1781.83891818
      2955.58649132
      4760.22226238
      3987.83349761
      5987.69561847
      520.80364772
      -2297.53829357
      1516.07331289
      1535.81351577
      3754.08143876
      1759.34708869
      506.98244797
      969.79765454
      1148.99802324
      2332.99242902
      8339.97137215
      2158.29790615
      2899.77191424
      1334.72239151
      747.75757306
      840.61469375
      900.68288024
      11.26158950
      4207.23344057
      2298.88391766
      4597.27381710
      1234.97802485
      643.13945353
      2398.29413107
      485.77435842
      113.18078383
      1887.30563200
      -475.95156412
      -1035.99835102
      1786.66276534
      -753.21485652
      -4528.63567360
      -1360.87197230
      950.93973063
      1815.31758070
      5070.01970505
      2142.96446956
      -1508.84788647
      2004.87716890
      -3370.12448390
      277.59187827
      2299.72294297
      931.29501317
      2984.08589444
      5770.12621562
      318.15193797
      -1156.13106036
      504.44117519
      4021.76646715
      1236.74963420
      3055.91495376
      2775.51262329
      -4320.86113303
      -28338.34729544
      18901.48388291
      3652.89334552
      3844.39092016
      4076.29638083
      2695.74885570
      5734.88600084
      4604.43736693
      5725.18505982
      3537.82670539
      6188.82456082
      8786.40617804
      2898.22277790
      2599.94506034
      3992.77694243
      1721.50314890
      1526.07288579
      3158.10055574
      615.60434073
      2196.23103830
      2377.47513355
      2582.61473179
      -529.89548390
      -541.11920159
      1231.17213901
      5528.35074377
      4005.12885596
      -1.95265029
      2050.50895799
      2944.15253281
      -724.59643103
      1614.10866298
      2876.10310396
      1625.13892018
      289.61556536
      356.43242182
      3436.37464822
      -114.05785770
      314.92648188
      973.01333058
      1170.50466145
      2710.45849151
      1067.58374040
      971.34853021
      67.16334385
      4054.18165345
      1786.39837264
      728.25638362
      2173.29785544
      981.22686185
      -1183.30712797
      1986.50148954
      1375.20921081
      1330.26011823
      -2490.94183336
      2505.01558295
      -398.65015098
      -1866.79354857
      -1562.48667939
      -780.85907896
      -4894.07656325
      906.67214941
      656.84297462
      9848.28686566
      3031.55496807
      -11880.58187565
      10940.21684210
      5106.64892483
      3890.32797984
      -265.22010693
      3207.30401576
      3547.50652155
      3821.96894612
      6473.38783501
      2333.95054535
      -116.70165454
      1096.46363638
      -939.37704770
      3802.98168863
      -348.59316256
      -3310.11837999
      447.35692806
      1913.79579666
      -4453.05344761
      2957.98062743
      2350.14703808
      1964.59164437
      3684.74617939
      2505.59748498
      2570.26130245
      2136.44246080
      3697.67749894
      6612.17112595
      2399.66607867
      2178.47349318
      2198.36976559
      1231.94379803
      376.90718595
      1690.63151557
      2316.45787564
      3319.65977098
      1845.17066032
      3019.79721686
      -2620.49462705
      883.80945970
      -35.77647043
      -914.06661562
      -146.93992799
      175.93222454
      -542.46475028
      507.71785236
      621.76374406
      -199.01651353
      4328.95488540
      592.67585991
      5454.64638884
      2342.41220815
      4793.59679561
      -5487.02286458
      -1276.85413415
      -2285.90778512
      -2931.71000777
      -3553.31678156
      8927.62372526
      -1844.87557278
      2322.68885386
      -502.91056104
      4230.23877213
      1217.35372167
      10183.75470634
      4001.79882317
      4546.28825347
      4314.40940788
      4375.48695779
      8840.21080490
      7850.17833927
      6113.75487077
      4035.93340979
      2182.76589552
      -1717.24496718
      2101.16584123
      3086.03190045
      1810.75207585
      -4513.39147977
      4822.99977752
      5518.92784813
      1471.00743196
      495.26404497
      1601.18380564
      2461.93941411
      -548.66952535
      1106.39023989
      2138.54047355
      4094.41724259
      -2039.16648247
      1787.98910168
      4217.56905347
      4782.20642784
      1768.73564637
      2996.41578481
      3511.78577057
      1949.23265512
      3469.44629078
      1971.32393220
      2190.18904371
      -387.66657108
      2247.50774346
      570.84348563
      -1764.64551722
      -790.17056162
      1543.53174209
      713.27029686
      322.75669968
      1808.15381866
      3581.02530644
      713.10857717
      -1062.37859323
      -7.45666961
      -1156.72821556
      -5038.50066853
      -266.85927011
      3701.30933173
      1108.90047147
      3329.61175966
      755.13886299
      -1168.74982627
      -2854.06152560
      2155.32861142
      -1264.61902344
      -1399.76677159
      -978.45266225
      1292.75526570
      10134.10529788
      3888.60239918
      3589.99177967
      8900.36306143
      11075.05078979
      378.30774625
      -30962.88851667
      -5678.75686574
      6409.06815124
      -205.30794784
      2842.92980328
      902.68635132
      3757.40120612
      183.24154408
      1753.00124027
      11501.29913600
      1373.60001409
      5016.10873746
      4380.22686543
      3773.14998432
      568.06737694
      3151.28772471
      3246.35830691
      741.83235839
      264.75619823
      4025.72925486
      283.44654847
      1100.02730100
      1067.99082190
      1264.82898958
      1901.93090315
      4014.50336904
      3791.94138920
      2966.29246401
      1744.17569576
      369.85830132
      -113.80756899
      -5018.94692524
      2287.31827361
      -3628.48406023
      4555.76770165
      312.56977232
      1990.06372867
      1659.51888941
      -1189.96381158
      1818.29942937
      947.79980824
      182.49039324
      999.32924054
      1404.25956589
      955.20471820
      -557.21863650
      1928.21885812
      534.03861908
      -1265.27297954
      2668.16004015
      1416.42730128
      -55.34461627
      3792.64146904
      -869.31428310
      -1697.00812912
      -1061.47914955
      5830.29939540
      2287.52412656
      3041.96422982
      -2282.30661020
      5790.63256849
      11931.74087957
      2661.16286929
      4302.18600087
      2319.05309312
      1897.32569776
      -19317.15986296
      3439.32525334
      10383.01309572
      6844.88714043
      2786.90804691
      2247.98766638
      -3843.99690253
      1050.07053924
      2619.76033249
      2345.38314767
      3697.31481157
      1849.72285694
      3120.18162389
      -438.79430936
      2127.01617247
      2616.67504275
      3449.64674688
      1813.03920957
      1275.14796161
      1099.50972541
      2105.46962266
      1516.36107801
      -807.64438471
      43.39147129
      -399.49283235
      1816.26813201
      -1716.67727577
      637.92095575
      3183.00358607
      174.59279345
      2800.47415562
      536.50855834
      3206.44308912
      1427.81424832
      4039.24488482
      1365.35998526
      -219.70475293
      -514.02180181
      3634.03543940
      2983.73973459
      960.76110153
      2614.63468175
      911.38396487
      -208.09247396
      830.25495594
      1897.11330915
      662.55512551
      -170.18735475
      3008.13535720
      264.39574643
      -781.90683448
      -589.20303202
      -1807.45454033
      3455.65548946
      1680.04633256
      -652.95450024
      2337.66501311
      445.75018222
      5900.28594839
      5348.38793359
      3392.37439657
      7480.59280109
      14399.59070656
      1943.10708160
      3910.74662592
      -1673.10258405
      3211.75720808
      -414.83359691
      7940.34547510
      6571.66649302
      3200.07070742
      745.10970519
      3734.04930158
      2366.60986610
      2176.96782217
      1970.31274638
      -269.41816968
      2705.85076785
      1784.08229277
      5475.95683684
      5130.63304570
      -200.00131967
      1882.32164858
      1031.92807633
      1762.69644345
      -257.57372045
      1097.01776367
      608.97022662
      442.07884190
      -246.15942838
      1151.19670030
      528.41104390
      4862.72039118
      32.25122764
      1390.30948907
      791.78584438
      6329.70614801
      -760.57674486
      1019.26192468
      1301.39526192
      773.85420577
      -101.99971100
      -3175.03529382
      4187.36056684
      4261.80394654
      888.15669544
      1143.59664767
      464.96553947
      1446.33465744
      517.28930106
      1155.73158278
      1017.24705475
      -609.57693548
      593.13388253
      -1213.70144757
      682.23062550
      361.81713296
      621.23589329
      1975.21905767
      -685.28679117
      4039.34384701
      -1568.39485935
      1224.63399518
      -1442.86202108
      2393.48401567
      2793.33194860
      5153.77957622
      4350.79434924
      5687.40439152
      11498.17222860
      -2617.92977759
      -2258.78910382
      13446.22358435
      1351.07896724
      1830.24017301
      1385.56514932
      5100.40749255
      3305.50171355
      2083.09879717
      4983.20946965
      24.97165340
      7611.14452786
      2336.89336110
      441.69999584
      777.19574752
      2818.35131112
      -371.89530104
      -3603.56260540
      2264.96447739
      -2405.55086609
      1513.57983008
      1239.54965901
      39.02720237
      2250.61573424
      1537.75799980
      1843.02050965
      1559.93153826
      -2189.85298538
      1324.61994928
      2026.32954583
      -692.92245990
      1437.80145608
      251.55566052
      130.30872795
      -474.64230929
      1294.10795457
      -1182.62601036
      699.53179883
      351.87550389
      602.19755484
      -1532.87206640
      -471.31152741
      4029.36366290
      403.57676485
      -2952.03552184
      2153.13795540
      -274.60822593
      -293.43602133
      1915.69853541
      460.64778120
      308.25776808
      483.33071622
      235.75974612
      -1855.60309580
      121.79881326
      -1744.10023009
      80.27725259
      -1191.85825904
      -80.93877147
      2604.79957434
      835.53541390
      -5449.85084485
      1963.98828032
      1789.29106379
      2566.61976350
      4732.48173753
      -1428.18171686
      -1867.69412276
      -40161.08078057
      6982.99193019
      5754.23635533
      5228.53589419
      1948.11132888
      2782.52672311
      3271.85446467
      3421.16045370
      435.51574545
      1677.15858518
      1528.66253555
      267.43492342
      2025.04546879
      8251.15703715
      4602.18824901
      1441.20327590
      1798.65815957
      3012.31143571
      1016.11942748
      92.94003446
      570.97155490
      992.28176316
      2656.03760938
      1902.84446649
      1713.30126264
      176.41596259
      3430.84222404
      324.21000061
      1007.30015608
      -441.64254360
      3364.60484087
      -449.35455381
      53.14567508
      1036.52208187
      366.16991645
      360.96692938