<?xml version="1.0"?>
<VTKFile type= "UnstructuredGrid"  version= "0.1"  byte_order= "BigEndian">
<UnstructuredGrid>
<Piece NumberOfPoints="5123" NumberOfCells="5123">
<PointData Scalars="Pressure" Vectors="Velocity">
<DataArray type="Float32" Name="Pressures" format="ascii">
      1569.42964792
      -31755.08171961
      -40297.68109905
      -25493.28008765
      -24261.99582305
      -28560.32273856
      -29272.80775739
      4666.96654647
      9094.10363848
      -23569.16128140
      4747.96422698
      -22140.43487678
      6049.08466966
      139814.28004240
      -20993.64946475
      4557.91291051
      40227.79002621
      -27025.94562458
      109116.74648346
      6841.90584468
      17544.31592543
      22326.36717781
      1541.55713873
      90731.89297904
      18102.08427167
      14719.58742024
      19505.72610449
      48655.37384227
      8260.03789161
      5864.27674103
      41444.26412158
      13996.98093620
      -8947.69206576
      25139.09497064
      6812.87787599
      7120.77352251
      17547.56883742
      -1516.15104553
      42416.71515827
      14723.27321337
      15414.81531162
      45524.37613040
      11746.90253330
      6053.04608743
      3030.36043639
      -1385.49343234
      3451.50185486
      13177.24410352
      3878.11387132
      6390.79368149
      4320.38359314
      -477.31178053
      597.61186871
      1948.44481821
      322.61157211
      6389.46429133
      2792.92314491
      -1501.15645994
      10037.81910556
      6957.34013416
      6016.70149330
      -473.84354989
      -5034.40647213
      4997.38918406
      -17786.96870837
      -595.80259331
      21041.45696720
      5389.50317142
      5318.84120133
      50175.90330048
      2895.79496491
      5787.06483622
      6755.76552710
      7583.05100927
      58.34353074
      12557.73398551
      1504.22045530
      2635.24701912
      1244.50929761
      7578.31468020
      3689.03331665
      4403.86603718
      12211.73624849
      2723.06827737
      644.22224635
      2365.57634561
      10672.96790769
      18745.73781334
      -1591.19033944
      8690.73690506
      4163.98822176
      3852.26833315
      2215.84434706
      7491.61167955
      2977.81539252
      1693.70004837
      23721.11747006
      11317.53605028
      11465.24828465
      4171.22513235
      13184.42380838
      12901.51569909
      -6637.59593947
      1808.78294078
      7952.71893927
      9464.28344480
      8616.67875863
      4936.54221265
      2280.03828124
      6258.14775698
      8650.38466944
      15377.74732830
      4100.15556796
      -3173.01921820
      8081.75979877
      -2532.03288770
      283.46447147
      3533.34152395
      -1952.80974429
      2062.54542153
      -2430.58608259
      -6563.95165284
      664.61562021
      4668.42459244
      3331.97819123
      -958.79690019
      197.91776978
      5471.68424550
      340.88197758
      1637.67468078
      994.93234982
      1960.76418250
      -24148.52814249
      -1044.28952465
      1877.46264234
      7485.03702774
      7176.93663254
      20397.95978198
      15669.97815699
      4614.61401358
      -1544.82286075
      3911.07789514
      18831.45361679
      10160.88228182
      4790.25136116
      7499.69442010
      1642.69210826
      4388.71648325
      1263.00680665
      3684.60533587
      2728.55039191
      55.42852050
      4463.31628769
      5795.94734349
      7037.22677575
      6087.82793548
      8941.77855068
      4679.84671747
      2949.14343246
      2179.91064066
      7343.12698908
      946.34058708
      1377.12763335
      3101.66826419
      4068.94148937
      3785.04649100
      1906.99926056
      4072.46106681
      3980.20032248
      6610.02061260
      4972.93904533
      983.46162802
      14710.54325433
      3500.40089450
      8173.33534291
      2701.87467879
      4233.06560382
      3145.73031517
      469.32144702
      -2210.82614498
      3318.05299451
      8000.50988074
      4314.01184628
      4159.05054027
      -569.37130897
      -56.30948334
      -1528.78679285
      -514.38546916
      -612.28902605
      3600.82359518
      1976.68207187
      -2770.69240032
      -718.83228783
      -5142.22421874
      2077.98621168
      1150.23007908
      -14265.47007254
      4570.97814286
      -18716.99888393
      1401.01239765
      10365.15099765
      5328.95491917
      11521.16648379
      6556.12979174
      33230.60971171
      29091.08230329
      7229.63162227
      9233.09430045
      13642.46743375
      9576.06712554
      14626.38255246
      12801.69059364
      4232.90530704
      11606.57252877
      5561.92791020
      4523.96433275
      16972.54611833
      14230.74414236
      3311.54509963
      5197.46492365
      8080.53715013
      2293.79084563
      -572.60125838
      7885.37154919
      664.19110112
      2679.86686165
      1816.72805066
      6620.80056228
      6449.11793418
      8220.82717145
      3265.67479363
      3557.68132675
      7465.83753752
      9997.22182780
      2845.67655377
      685.79075950
      1152.32869593
      1853.31899840
      -1945.89664388
      4437.50241965
      4030.28616774
      1819.24636653
      6240.97891860
      7302.01822392
      6034.15614294
      -888.22296468
      -1844.99539238
      2040.37949929
      2733.98086020
      2222.46508636
      6643.70877271
      837.75801400
      3258.83252453
      -1225.28399222
      -1182.83006652
      638.15405630
      3698.41776477
      1205.75275122
      979.25924703
      1860.23548707
      -876.29556406
      6338.05906257
      522.64818592
      15469.74620021
      -27399.67254656
      22563.65984999
      5932.02701769
      16807.50688496
      5281.58132866
      20331.25987769
      6725.27888855
      4624.34954084
      3645.95667222
      6417.72686656
      16161.53751380
      5029.85902724
      5408.46229827
      7181.77796228
      4824.70419329
      7034.03112636
      -4237.19967364
      3556.69890590
      537.19955397
      739.11432068
      1816.35698824
      8909.10791001
      4527.27352352
      3761.26247556
      2159.34684542
      825.03464849
      2024.11563720
      -44.74547413
      302.27569923
      3448.76742624
      2155.71950793
      984.78216958
      -1588.94756102
      797.99017269
      253.16264221
      2313.48768416
      472.42867125
      -440.20070771
      2308.15425798
      1734.04402913
      2979.90798098
      1937.14591854
      6251.07182468
      351.28635364
      -1067.70387711
      -1639.84170176
      -566.14242819
      -1346.61714764
      82.76763914
      1858.08297748
      -4190.93711998
      1956.74644933
      5933.57013141
      861.30752749
      3133.66091799
      2754.95582520
      994.68165497
      -1674.84573244
      -1765.36898727
      -325.53308162
      -1308.70857544
      1651.82883520
      6215.80713428
      -423.87130893
      -367.65958101
      5310.61656327
      -20980.90566408
      19029.93289493
      10798.45627369
      19293.87818821
      9318.43495017
      7878.50882503
      13029.91557670
      10382.65630803
      3397.59982699
      5964.43689935
      13776.70896075
      4883.40630115
      5902.20040688
      14086.33103886
      9599.68434120
      3180.16159752
      12541.84008723
      3776.16537841
      5673.55349789
      12430.47197225
      13811.57230278
      9.38797727
      1709.03458594
      1662.77617960
      8122.33403236
      7009.81180881
      5138.40623228
      525.33290730
      1989.16703866
      4356.69521991
      857.92261978
      6351.50250103
      1732.70906547
      -1125.12624084
      1720.02315170
      2839.69251457
      2041.77914132
      3176.45519221
      1060.68050539
      989.36892164
      973.43613565
      4858.74627565
      5432.46638084
      5337.64048571
      2402.47812603
      8106.96933464
      1247.17514829
      2847.15579399
      967.03876294
      2522.38020383
      2865.65164088
      2345.70047883
      6976.85762280
      -3323.38513985
      3712.53775409
      3880.89210919
      2928.05034393
      1747.79304189
      611.88631258
      2579.42688656
      2676.46909218
      2307.54706348
      59.99477932
      116.96925126
      2592.00156579
      3549.73764875
      8557.31989396
      21621.59602986
      8351.72717834
      29915.25651669
      24885.17492066
      18477.93589302
      13581.02041748
      3667.65713559
      8177.47530120
      16667.22897895
      7635.36268470
      5378.77698707
      5098.82787600
      2690.28572209
      6239.48192400
      16368.35406827
      -553.46642053
      -5167.61535224
      1658.73546685
      7159.74998396
      4415.81849949
      4268.15078921
      19244.58616551
      16862.05790632
      6983.01935038
      3925.92471533
      1623.88721356
      6766.91156909
      3410.61929629
      -133.01665568
      3444.30193109
      1345.69672430
      5293.93170261
      4298.21601247
      5920.99613513
      10.16301639
      2967.97026182
      2274.59837154
      3853.37990826
      -737.86771071
      2478.07888781
      2296.79603905
      6846.42318440
      -1460.64762745
      2849.46110728
      -674.50435043
      -5108.00321967
      2740.25354394
      9365.04971966
      1328.69252452
      -338.30423180
      1075.95271901
      2892.94304231
      11419.08017786
      1336.87476943
      3582.60608752
      2946.99591935
      8785.06937111
      9448.61293866
      2231.51084667
      1741.95423076
      1024.37222370
      1656.95044677
      1926.91125849
      1019.32413249
      2016.19750069
      31262.41973228
      4848.27667612
      9760.03951189
      22090.55275296
      14132.08592401
      4376.45742347
      10370.54350979
      8430.70961400
      10837.20799424
      7568.53469419
      10751.97897402
      15463.75919386
      7966.53053513
      4004.83756045
      4905.01141000
      9728.41982582
      7818.68607530
      6450.38774582
      3499.90757483
      16205.29527515
      14114.22302771
      10104.66979113
      -5779.11281674
      3878.04823243
      11506.83219818
      3632.70014086
      -1320.73676539
      944.88002194
      4614.05861800
      2210.51060658
      4574.64978407
      2352.04516998
      4752.06110550
      1911.46452579
      3457.16191039
      3345.39714651
      -985.68687238
      4486.45686170
      6967.13912842
      1533.48010433
      -2141.51963142
      3021.44718085
      5129.54171781
      1286.42265027
      4614.67588572
      1598.79034467
      -3667.89932518
      -211.76229867
      693.13667140
      2198.84593373
      676.08812312
      2844.15420706
      1091.88690402
      3159.79095974
      5623.03965679
      2019.94257456
      2020.97683334
      1197.52123646
      4364.50660619
      3044.89142554
      1055.49682094
      2684.31110009
      4383.47669477
      -80.30653216
      1146.15873035
      929.18597918
      -21336.21804100
      12276.91376761
      26938.59298625
      -11622.99090095
      2804.37040919
      5528.60538549
      9151.85960537
      3863.12127228
      2761.42833345
      7114.62073487
      -216.83323697
      6211.38028417
      43969.14349754
      4024.56366248
      17946.02533071
      15094.54375988
      5040.40364375
      4005.42504509
      6642.82181228
      7851.86827277
      7888.79491658
      4143.36487744
      6995.95794522
      9367.61674448
      8348.30354392
      6476.41441751
      5803.38211748
      12725.56201183
      2016.66379660
      9311.81280918
      3462.71011210
      -449.07899042
      1118.96669876
      2629.03790676
      7780.99767454
      892.89929871
      2890.49372275
      -3660.27072381
      -1970.81484383
      3978.91053685
      724.58209750
      3184.23818971
      1690.58631991
      1270.68888217
      1748.35092398
      -1445.42356401
      -2091.13715824
      331.68174627
      2013.51723101
      651.14917177
      5101.06851546
      1133.49436820
      2184.46068156
      7716.36401523
      2056.76674531
      4166.98692062
      -4426.28259927
      2481.20901902
      3235.34261749
      565.15140043
      303.26117318
      16.86540930
      -39.85605343
      1471.69866361
      2558.78221593
      3579.51012268
      3690.04581268
      -16161.55176151
      8122.51723891
      -12956.51978973
      6182.42565037
      -2127.30006925
      2577.23179843
      5467.84298386
      7843.92336625
      5399.34356348
      19526.28563833
      3679.39962927
      3478.43073644
      6611.21692241
      3320.11183265
      6288.15209416
      3501.96508280
      2118.54147746
      4162.79389224
      2885.30743441
      5683.24540138
      14130.82155742
      1042.20937518
      113.09898271
      4527.37588371
      3285.90555371
      3742.92230545
      2237.72314630
      825.40512674
      1652.94102657
      1523.75054529
      4438.18967402
      1769.45010015
      -1209.60543658
      7998.39050568
      13073.12117940
      2087.30098354
      483.76503903
      5150.84096305
      -734.96891604
      -3161.16515137
      2148.45552675
      5751.24390094
      -1636.39260994
      6379.39848016
      2781.81696416
      -2498.19749742
      -2760.93058581
      -1805.23199611
      951.94379446
      2963.72113647
      4761.79937029
      6459.38946591
      968.99141035
      2476.01116349
      2018.48448254
      2053.83672302
      4894.31699184
      -85.67984733
      778.66718531
      -498.13311480
      -564.82002026
      -680.22941880
      -1098.13662594
      1209.04231237
      3667.54759358
      -18378.22992136
      -5122.03323266
      4503.12437153
      14034.96117705
      17068.19952294
      1725.20438474
      10718.88583128
      7457.52592850
      2505.04772241
      2910.06943527
      9636.74524549
      4744.57033098
      8278.19667474
      23083.73486833
      2242.58825246
      3103.98890929
      -490.47414741
      2783.54298855
      3601.20415116
      -1195.64408972
      304.45426744
      -847.09233518
      -472.68721264
      886.82103059
      1034.84288339
      1243.19928003
      -583.41612961
      1705.53049874
      1408.31696380
      -456.18442175
      2518.47464844
      3016.57708578
      2570.89139453
      4011.96093646
      797.85551946
      268.44739428
      -139.37523836
      2470.53294451
      -516.33110908
      1775.20011899
      1156.71204692
      446.14983486
      3171.54877166
      1896.66764001
      5111.59861389
      1347.52221701
      6574.92015261
      2690.22966166
      1738.74108153
      2766.72055053
      3758.75615163
      2097.46829770
      2149.79957037
      -752.90194000
      1400.36380943
      2349.62195654
      4682.76892589
      2420.99397063
      1670.43712098
      1875.09776085
      4398.96159338
      4292.35072242
      750.02433684
      -331.60903808
      2209.26257308
      2192.09499984
      -15857.23209146
      3555.40241864
      8244.87327786
      7319.66371141
      5814.46752405
      18528.89947943
      13793.55343930
      14787.83585562
      -7583.97097746
      17711.28142125
      15128.47820227
      4326.43846368
      5453.89073633
      12351.43130622
      -3120.69567244
      3125.78675938
      3013.74652781
      1891.54702386
      421.31678047
      2000.06005211
      2624.59952465
      3265.16122850
      2404.88730983
      1285.44159117
      160.54286018
      3075.31549453
      1751.78335433
      1880.39096742
      685.23364259
      2045.05044574
      1048.29051125
      1827.80267749
      3382.77884780
      1464.31211953
      3842.56090039
      1488.95468544
      2455.38532390
      2186.65855826
      3026.18631456
      714.82394671
      425.36778786
      1273.20809165
      3366.56272920
      3188.74679801
      5825.09152817
      7493.18733901
      3040.03537940
      970.43679698
      2472.71827326
      946.33852007
      -670.02166025
      3764.93569567
      -970.63514257
      4201.66065084
      736.63444986
      1654.33295354
      35.38345680
      914.59765154
      2838.45062562
      4048.35336634
      2226.67565702
      1586.61648267
      1520.57072252
      -467.02976414
      -709.04382256
      3729.26900936
      -7670.53798646
      7479.08638050
      17811.60397168
      9926.75732337
      -866.79476575
      -3941.40225661
      11040.28647649
      3849.58551865
      4170.80774062
      3899.63105274
      3259.20007910
      3170.17524567
      1062.50584822
      1486.69425886
      2180.69579108
      1515.63057305
      1098.06755966
      2868.75744222
      1692.86969803
      2830.22062434
      2353.96643533
      3317.11971266
      1068.21692774
      2213.02450996
      1977.77708881
      1234.12128788
      1412.69782644
      1976.04803105
      3956.21455662
      3206.59862177
      846.84111025
      5079.95244989
      -1262.50022111
      791.28027687
      1117.79537300
      4388.54790062
      406.62198159
      1018.13351280
      4231.26700057
      2246.01280111
      -2088.13101902
      -1430.44425511
      4675.76109310
      -3955.85958652
      3752.25112307
      5034.46177444
      5807.52852541
      1701.51146241
      3783.39590912
      3221.47136325
      -2177.03619326
      973.64696558
      -1119.84466367
      -136.22914357
      4279.94717372
      2405.18372431
      1550.96227937
      3919.81429299
      -1098.46260658
      2310.06708253
      596.91017190
      134.15398618
      2001.40674145
      2063.72470068
      1609.34836936
      4615.75013743
      -7886.36499036
      12922.35874613
      8566.97765498
      -6757.68968368
      -8629.40135204
      4518.55948975
      1640.06187654
      11534.28150912
      2795.81181564
      1490.85951343
      1407.67869202
      2952.87631011
      169.72813422
      3583.41448637
      1444.32844090
      1357.46319544
      1519.49942196
      566.52633469
      1387.41986231
      2389.73225327
      402.33951935
      1651.06122797
      600.91250103
      2040.23870105
      -2409.14654606
      -1150.30792260
      315.59481909
      939.54919552
      323.31708088
      4989.41488645
      -610.19396224
      1248.81868267
      2125.95116348
      446.01979960
      424.84275700
      3159.00692562
      1132.69591703
      -1375.62997452
      2018.59820271
      1306.06723611
      3536.97416033
      3757.84888894
      -1436.69251720
      -369.63799910
      -765.95854111
      -2969.86271787
      -1878.12643716
      2892.62117539
      -1767.89877078
      -49.69557372
      1129.52926860
      1247.49762055
      41.17308467
      -311.13690648
      931.05236082
      1173.38913311
      2641.86348176
      -1401.15608079
      794.95175020
      2969.05136171
      1173.03489567
      12.31734091
      1364.70756117
      3031.61895106
      4234.55956050
      678.43362200
      -4014.20524439
      20087.89015885
      -27919.17237965
      9100.61305119
      -8690.77462313
      1713.58501972
      2877.16311097
      4903.25893784
      1833.16972642
      1989.07159341
      1489.54717507
      68.82436183
      1808.73393277
      630.53299688
      877.86210913
      1691.40716125
      598.12292435
      -1463.10112304
      66.15777673
      1416.47068112
      792.56520655
      1293.48547543
      298.09249754
      -1081.67491123
      1311.31459273
      2647.99681246
      -751.48272827
      707.20249315
      2928.41733236
      1102.23904091
      -715.33417297
      1172.49123768
      824.47501151
      3332.38538283
      244.10601824
      3823.81403396
      -52.89222976
      2845.50323245
      3491.31262114
      1661.63622556
      354.42391647
      -1772.38156390
      -565.61632857
      388.38194333
      1697.07393009
      -775.13506596
      819.34995222
      -618.56674582
      3729.19299393
      3572.52033372
      1137.45358777
      458.08075144
      -131.60164392
      -607.27622374
      -2007.30639255
      -5053.73494057
      184.09214989
      316.64824250
      -66.17346672
      -395.05788960
      1666.25328409
      -61.54063970
      2638.73288750
      -1389.88301773
      2181.92130223
      2590.43386585
      -28338.34729544
      -2242.93670816
      5194.39246707
      3746.70028110
      3086.04949756
      8799.22941853
      3725.68263973
      1401.69396308
      2093.04792355
      4099.88742857
      3735.21478772
      6666.48257327
      1136.42685166
      1718.97833981
      1574.83479503
      1644.44508424
      1643.41572806
      3037.97769030
      -1551.56283093
      1355.70369427
      1952.82886730
      1853.83363580
      3249.69394505
      1877.46439123
      2524.24421153
      6230.96139333
      3009.86953868
      927.09102451
      253.80507657
      1732.56924698
      -1601.90727139
      4192.47091203
      1909.02171639
      903.47582332
      432.42392441
      1630.90423125
      620.88506975
      1782.07202336
      2859.58942538
      625.61922804
      2516.86560739
      1669.55212078
      2795.11472972
      3027.54536963
      3508.10001466
      919.27748793
      2089.62357966
      1216.60807358
      4219.98092108
      1505.17312280
      790.83398004
      773.62481298
      268.65066960
      -106.42201283
      -672.17064736
      940.22778939
      4853.45011712
      -1812.67170253
      1507.98111215
      679.64481091
      -799.38352924
      949.72050008
      1156.88578565
      4507.66239141
      3505.88841561
      -684.24960079
      -10769.53896948
      6932.71043082
      6514.60958070
      4892.02877823
      3155.19857940
      2471.87645058
      -1439.59495238
      4717.48170465
      2151.63544718
      -43.72788817
      2930.34682260
      -2521.71969290
      954.23836192
      363.39206603
      1100.40233786
      1658.22620543
      2021.14015485
      3687.04354193
      3359.21414541
      3154.20533494
      1126.50749731
      1504.37498670
      4058.84787454
      757.09955207
      2864.62402989
      4057.04273035
      1870.31610340
      1834.36474450
      2016.46430988
      1510.69067207
      6256.59032688
      2198.21785450
      2720.18333436
      1109.48148853
      2719.79667641
      112.62038119
      1202.75736126
      2242.60480865
      678.58644742
      -7135.37454264
      -1603.73416797
      -4701.99299770
      1458.88679785
      -3033.65945694
      -240.21740852
      2105.39516553
      -148.64479873
      -109.29689659
      -3403.51120769
      1174.78121483
      942.57335857
      -1086.44683173
      -526.97651421
      1494.55166390
      -1410.50053229
      1927.05615504
      -5344.25267693
      5433.17944168
      -41.70573365
      -2291.83403159
      4577.89293665
      7623.33645150
      5503.51830029
      6103.60425676
      4643.99435889
      6675.34611443
      5490.05210000
      4079.31073026
      3427.27283389
      3644.00698252
      1297.04247644
      2411.68100612
      2145.02729747
      -7661.80592759
      996.68992302
      2339.72817712
      1892.42136793
      411.59045302
      680.42530934
      -770.08045671
      1401.85435052
      42.13814739
      -186.71860071
      955.45275082
      326.84135872
      -532.36181007
      1820.02315039
      2142.56647621
      3567.26425285
      2056.80793686
      2778.12294574
      1871.43735578
      1458.51315981
      5974.27732977
      1405.74674712
      -83.43998414
      2843.71280386
      877.50341472
      306.78487718
      1670.87973089
      1425.05019319
      4328.15548622
      -3342.88381118
      -1249.75439506
      2768.23451719
      920.94216062
      519.90419243
      654.96834100
      526.85689723
      -1747.02699557
      280.64986705
      2.86975899
      -3477.57253021
      -1303.49973546
      623.14151112
      381.32885848
      909.22156723
      1166.82058991
      2213.41694760
      -928.18017393
      -169.15184716
      128.24819589
      1616.40544238
      851.93500263
      4525.87177973
      1384.80907342
      6155.69467643
      -240.93015094
      2838.82548988
      1079.71167745
      7595.90286289
      108.99377921
      -30962.88851667
      -5678.75686574
      4652.13037213
      7095.49350425
      1184.46212322
      3472.07176163
      2436.61993762
      -2440.36667065
      1918.81750237
      3430.23636261
      1325.95893774
      2915.52439069
      2470.68911669
      2760.48972555
      539.46561222
      1422.20586807
      547.00859120
      665.54042261
      653.36956148
      1452.78178915
      397.10263419
      601.15941392
      1701.08818817
      503.03644274
      1025.14958662
      1889.96574925
      2744.89177801
      1458.19231597
      342.56096693
      439.41642287
      680.11605239
      1003.31267655
      365.75286228
      1139.10926957
      1937.23168088
      1309.91903102
      -662.53090320
      626.82957812
      -1896.90515282
      -4632.39116737
      1312.06762531
      833.13006757
      -2235.96967901
      577.80865358
      1178.17512449
      -996.52529165
      1653.91787892
      2892.02629215
      -3475.28187185
      1967.31851589
      313.28283805
      -2208.07642022
      4467.15724601
      1590.56768279
      -133.91807712
      916.60494707
      2552.25829591
      769.74660484
      1925.11537159
      -293.20506888
      3087.94396249
      6060.15770291
      4423.47255126
      3472.80571479
      1410.59728476
      -3127.10367426
      -19317.15986296
      3439.32525334
      4682.93815442
      -18.70718395
      4765.53939784
      2987.24192615
      2352.07705839
      2651.12889254
      2682.48116425
      2307.70429333
      4257.67536741
      1585.97510872
      1395.80064361
      1468.41142179
      1832.84724543
      2544.25800479
      1729.59143023
      2600.66517364
      1030.95967140
      725.63017550
      1633.41622962
      571.15121935
      1286.00515934
      1490.58474535
      1281.87320534
      786.37085133
      805.38597543
      304.25209797
      1006.17199700
      707.68708420
      1009.53591934
      2357.58105952
      -365.89119853
      2544.05451585
      1002.86965021
      -427.26845121
      296.13933687
      33.39928803
      2445.60410721
      1537.70806723
      1733.43502330
      3264.17625300
      324.81738745
      880.62109008
      924.82311104
      1518.59305506
      272.11099758
      -340.88172922
      1636.32565440
      -1809.14607633
      1163.41545890
      -718.92307745
      -264.27352287
      -613.28851160
      972.16778569
      192.68996919
      -202.34437015
      270.81129675
      1913.74813175
      507.78600151
      1642.25084712
      434.86984799
      4384.63710761
      2028.82596053
      5117.82879893
      1338.55339008
      3211.75720808
      1009.27610082
      8574.06264260
      3531.96271869
      1645.84516617
      878.07416735
      3492.46071824
      2118.24072222
      5746.88476657
      2512.03362925
      1174.92733464
      2742.68022145
      1049.03662629
      3814.52160646
      4685.80041202
      1586.41207903
      864.23610020
      -772.80741788
      1058.49574614
      903.93313492
      195.12483564
      2047.03352799
      857.36466751
      -591.74980571
      -103.89820089
      1942.20435443
      3752.42605192
      908.17691448
      -642.86001469
      182.12964049
      -1432.67935038
      766.19521348
      1016.12533137
      1035.31157293
      -280.41317919
      2634.40903899
      157.25457344
      287.93349813
      122.40859673
      -1001.50683525
      1001.76240628
      1445.92436328
      1458.71048953
      1007.90026139
      2122.23292320
      1629.72935646
      664.86342214
      -609.39627519
      1374.45694522
      439.23330249
      396.43098589
      -369.99013574
      2158.44208753
      1717.51359286
      665.37957332
      1162.98006117
      -11209.96643342
      5506.52699494
      -50.88199669
      4117.02682073
      4146.18302823
      2047.38503098
      1465.12987397
      6849.41259571
      4084.81593504
      4283.05091283
      985.22061597
      1351.07896724
      3648.63410670
      4754.01276494
      2637.67575921
      2028.63857255
      3003.65249376
      1991.82377314
      3574.58747615
      4180.50695792
      2461.76444765
      1615.31425855
      2899.23312037
      107.01191550
      38.50670613
      968.46512431
      827.37507184
      -1652.23341680
      725.69793335
      1971.60356939
      -967.97756929
      2385.68770654
      166.41202147
      518.24684066
      1945.62916898
      -2754.43744777
      399.35726054
      1902.08309759
      2585.04352419
      2089.39769770
      1268.70542142
      -537.78180195
      3193.43399576
      -156.72570518
      1343.30032892
      1506.69267089
      670.94889746
      1594.35654936
      819.18847947
      331.12924276
      214.09029561
      511.38897454
      -905.11921965
      -2029.86946449
      28.34471885
      -90.47148757
      -407.79261960
      -2468.96093292
      188.34780538
      -333.46903761
      912.74651773
      -2299.68831590
      3044.43458899
      56.23593196
      86.83622934
      1126.60951262
      941.85736358
      -3086.83212076
      2642.70290497
      -341.38812980
      3844.13383330
      409.03927960
      2135.32393068
      4187.61725133
      2092.10626697
      4727.08244596
      -40161.08078057
      5150.44352989
      3627.20398519
      5467.61935077
      918.34025430
      1889.82837727
      2032.03127397
      3428.96527352
      -26.83434316
      2367.91538499
      2112.34291134
      93.27125451
      -388.94010898
      5667.90150588
      5679.59998383
      2273.58923402
      2067.01123718
      1624.09264502
      1312.65261511
      1071.08354576
      1609.07062144
      3898.53091408
      3273.42373198
      1634.03198823
      989.10016515
      1805.96219238
      4386.05663314
      1913.33037347
      1727.32701645
      4280.60212103
      235.33439864
      806.83154610