<?xml version="1.0"?>
<VTKFile type= "UnstructuredGrid"  version= "0.1"  byte_order= "BigEndian">
<UnstructuredGrid>
<Piece NumberOfPoints="5123" NumberOfCells="5123">
<PointData Scalars="Pressure" Vectors="Velocity">
<DataArray type="Float32" Name="Pressures" format="ascii">
      -208.21920102
      -20011.71852053
      -24854.89739777
      -25493.28008765
      -24261.99582305
      -28560.32273856
      -29272.80775739
      2646.90083816
      1244.16663406
      -23569.16128140
      3194.00078386
      -22140.43487678
      -40.46482340
      2121.93585059
      -20993.64946475
      2247.29127814
      -377.45667454
      -27025.94562458
      2593.40713662
      36.04033595
      -1350.27333320
      305.42658296
      -1594.23184499
      498.25690016
      1047.65842410
      -333.22909506
      -611.23514801
      390.29025938
      -785.22228142
      -1498.37337279
      557.82059284
      956.27642534
      -23.55347615
      139.16271930
      -1775.41197547
      196.57492945
      532.05618600
      484.55481846
      -207.30514981
      -590.40437312
      119.60181779
      -617.15535134
      364.21407764
      -1404.48330154
      -1724.23410472
      -527.14105304
      1003.54408688
      -1305.45635730
      -85.78925863
      -243.27715504
      -228.24628822
      -563.49300614
      -1867.01393726
      -1821.04942136
      -1500.63267484
      427.32058038
      379.48388663
      -1196.26760142
      -1588.58203589
      -243.24329454
      685.77139439
      469.10208667
      828.38979009
      -253.48147934
      -1729.40820261
      467.49698504
      10614.63001247
      5389.50317142
      1829.39912670
      2183.05132422
      600.79032741
      419.17678631
      1171.86085157
      1625.41408627
      2553.05418979
      2345.66301339
      40.80239849
      923.63666585
      1376.44009708
      426.50270031
      1257.75073458
      2956.11912932
      3020.36108137
      2092.61658925
      -509.62612117
      428.66302102
      2994.45268743
      2647.12348922
      1186.23835972
      3784.90799043
      -3968.36598542
      -1183.39743833
      2460.09110562
      -4228.44265414
      3713.36976330
      1410.63036466
      1332.76823685
      -876.77753395
      -2443.05531859
      266.70822116
      1875.20804641
      -862.41306940
      -6221.89968621
      176.08834962
      584.49445709
      -502.87326596
      2439.00422397
      -3160.56056710
      952.66831022
      612.09576918
      4335.37816992
      996.05190595
      178.22216688
      1332.47004357
      -1749.35137421
      -2603.16338449
      -2818.60047911
      -1221.20581076
      228.71168177
      512.07568804
      -4843.02982166
      -1644.80120210
      685.51287999
      -599.49602639
      705.45264160
      -246.56839671
      257.72987967
      857.39785127
      168.40596634
      4.53698726
      558.15145160
      428.21710104
      -24148.52814249
      5156.28549339
      4404.03732909
      681.24882243
      2283.32744480
      4054.32802441
      392.97096951
      462.84549288
      604.20282879
      672.85810123
      5468.36344791
      394.94506184
      1064.08586683
      784.49054353
      6222.56186031
      4053.69237531
      2760.42990648
      1468.52462375
      -471.12123908
      3559.39291869
      -1766.12933502
      -2550.43783639
      2831.44219821
      -5127.23076055
      3416.53357485
      -340.94583593
      -2006.60975685
      3641.58533785
      2746.64308359
      3783.32166341
      2300.48720263
      2180.57338418
      4959.93084038
      4113.83154629
      6461.92432739
      2757.28406570
      1702.63549734
      1539.59670151
      907.42677288
      -5675.69001637
      -491.01215497
      181.74751258
      2198.36017126
      1550.76046480
      4403.63441848
      1626.19173498
      -720.14973448
      3172.94282379
      -1097.06440482
      2317.79529856
      -10.48208886
      2059.28545013
      -2055.61963896
      759.54829540
      -581.89355857
      -325.10199338
      11.72020189
      88.82542455
      -83.34001065
      -925.83439995
      -1206.96140857
      -542.94296650
      1541.77881203
      764.91772233
      -2382.98148951
      676.16181628
      -18716.99888393
      3713.09656579
      3327.65290184
      3294.94741677
      1558.66174448
      2380.59659741
      2768.44794397
      1304.88723758
      -668.58851175
      2465.38075869
      816.97263773
      960.07724848
      713.50182201
      1056.96065486
      6949.11593010
      1057.04763740
      2106.16918291
      7467.59152917
      3457.74192823
      2815.58982375
      -1676.02146374
      -1302.03205815
      3023.61549180
      719.13854513
      2062.64794944
      4258.69258379
      -587.49578888
      3308.99460411
      -328.35568667
      4186.15673435
      -916.82275204
      2479.92617677
      3006.77447637
      1194.76562469
      3888.61138079
      685.64696673
      885.95061798
      2533.83244916
      600.59516279
      2154.88922058
      2191.14399594
      2402.44791593
      2853.06934507
      -484.47395714
      5693.30189542
      262.02970236
      -1118.23615437
      -1758.84006416
      -3325.01190464
      -375.18492036
      -345.00398002
      -950.85182870
      679.95581227
      2708.38980745
      -303.08645727
      342.18621460
      1436.84178829
      855.24551004
      -649.37569999
      1258.88075089
      1010.47201070
      860.93985871
      811.25991391
      -553.30922462
      -575.31869048
      -346.20312038
      -27399.67254656
      7095.94447728
      5484.29509207
      7779.95281035
      6438.17127551
      9292.83735309
      3042.12357788
      958.76703429
      1308.05993814
      -3992.37134547
      213.23247302
      -5437.91580244
      2246.83758707
      7022.17218391
      2273.49838376
      835.19078149
      5738.91056170
      1521.68333361
      2916.85333297
      4262.11888332
      3349.03641701
      2681.93638080
      7100.00340470
      1444.81063947
      1748.19680419
      6088.43165508
      2321.53341121
      -1051.50030954
      1901.99450034
      -749.80514328
      561.86598157
      4045.30770334
      2735.22512012
      -482.91302648
      2768.30866018
      786.28639449
      1556.07152861
      1135.06208232
      3456.05947086
      2262.01611052
      519.02840536
      1619.26500903
      908.49942212
      2460.75323837
      -620.47038713
      -270.00999941
      1870.79597211
      1360.90295586
      -941.71772843
      881.05514363
      -585.00452549
      -417.11058514
      603.93556781
      682.28198573
      1510.31433999
      583.05698597
      751.32832680
      176.57273038
      551.66420313
      1067.37822348
      1012.97118766
      -2462.64970049
      372.46892669
      956.63338530
      588.27537369
      290.22656437
      -20980.90566408
      4377.46040833
      13441.55827154
      4657.55861039
      2413.91886501
      2542.10938359
      8385.34843474
      3502.57342585
      10692.12706247
      3631.51395656
      2273.28744678
      2980.03824095
      1994.21128467
      1934.28556672
      256.18461206
      41.29844132
      -1365.81367250
      2030.80333831
      -1788.39829748
      5362.16543644
      -1384.24912839
      1130.30324211
      -5006.13350116
      863.00463954
      7502.18973758
      3252.13816755
      384.38015306
      1153.54693486
      1761.66446551
      2675.79593413
      3734.32649708
      -3110.53556166
      3401.41502033
      3706.76552716
      -1251.76230821
      2551.09661097
      1003.50368628
      891.13853674
      7392.42990422
      2822.24006153
      2269.22971375
      1629.91496608
      5204.75060171
      -2476.80592363
      -405.72468513
      190.01404074
      2678.33532900
      3146.04096460
      387.14216177
      415.89797572
      500.13298366
      1736.45976440
      -443.28086796
      978.70635066
      -98.52883736
      2721.36282763
      291.21290041
      -1261.25920124
      2464.45725768
      1439.04270917
      127.84829489
      608.59960345
      -1243.46235343
      41.36291900
      319.07868578
      868.70011558
      5914.97584238
      8993.04013876
      2189.23503716
      2441.80599845
      5616.34533560
      5028.58626385
      4044.96759560
      3853.46002745
      2642.95318900
      5054.53839273
      4487.64234253
      1846.39954993
      631.15734877
      100.73240454
      1721.31434221
      3003.01032713
      7711.66025933
      8360.32588228
      5907.43789095
      5865.50895968
      8480.78333146
      -5707.64829572
      1888.35574456
      6833.59616531
      7113.22315347
      1606.36472089
      3949.50755523
      3663.59161867
      1758.44638203
      -225.62404537
      2528.43446225
      -1200.09894314
      1135.74199194
      -172.67661391
      -8383.26713213
      2174.25116611
      3558.86628687
      93.83302988
      4685.55665286
      -922.05114283
      1430.01786088
      7835.57033134
      1726.59348136
      -704.56032855
      2141.50049525
      331.87751601
      571.45583603
      1531.26826721
      -111.86359200
      1623.03484325
      -167.78209512
      -1686.78087465
      936.98908764
      -1880.24892433
      1670.33590183
      295.38127778
      320.17913878
      -598.43970274
      2560.87128355
      1329.96305843
      517.52385765
      -127.17850458
      -20.62985475
      -985.30222402
      326.38435030
      499.36280299
      11175.18651820
      2572.84685380
      2538.63906288
      15304.44441830
      843.75553134
      6526.85395866
      8034.85196465
      222.36355692
      2725.51708260
      3351.18053286
      1493.91255701
      2261.98763156
      4294.44312935
      2263.90738649
      3177.33590779
      539.72094301
      11678.85095582
      -4061.82521099
      2216.55797755
      7954.45585467
      832.20000095
      4907.06327065
      609.01647685
      1794.17943559
      4435.03012054
      1335.76514144
      -3306.25250033
      3417.06661549
      1775.42046269
      -2127.30271969
      3188.43982348
      789.32860291
      -2829.54014230
      1405.20191895
      -6964.35438165
      -848.99773078
      355.52636865
      2572.29573016
      5390.96584138
      -1555.17412406
      657.93876566
      1847.96970008
      -2059.57021014
      933.42131311
      6479.20941266
      3499.04253816
      -285.61857121
      -2247.24826554
      1986.20338825
      -1658.39003227
      -1874.47312626
      3679.28002899
      253.56421041
      -260.61952555
      2822.57997404
      938.40710492
      1800.16196990
      3034.28533071
      2116.71358674
      1508.87941678
      1230.74980644
      -1181.13468371
      -3272.40538526
      293.57723920
      409.04810440
      556.94449154
      -21336.21804100
      7284.01312845
      7841.47512874
      12532.33181725
      11755.16864610
      1081.71847617
      3335.17413315
      2216.84384862
      3918.20755096
      1384.08908126
      2196.28904018
      6319.81063323
      2673.72033633
      7636.64407289
      766.08670762
      3629.57042006
      2378.34947074
      6291.71216270
      2135.13120446
      602.90776166
      1832.49994060
      1628.80400570
      5497.45135411
      4111.87174699
      1674.58273826
      4087.42426102
      1019.40731641
      3244.61760006
      1720.24144235
      -189.35908737
      3963.69784167
      -22.55733884
      74.59596655
      1361.31240436
      1412.15074565
      -357.97211776
      2417.23187701
      2004.60490081
      -15.07135722
      1208.62802116
      -692.91355817
      1539.16609951
      -76.62625492
      4645.83317103
      -517.96291555
      576.78075169
      -1776.39683632
      -152.03187276
      832.70031616
      3064.81409674
      2848.20362212
      1398.07092146
      -2392.89001323
      1889.11348837
      586.88192465
      698.02481106
      1297.40789469
      95.33734747
      656.51977880
      2848.10459027
      418.71659355
      600.51985404
      -2608.04273046
      312.29835902
      143.89696169
      -158.28079664
      14343.00187958
      6390.30792837
      9364.84045137
      11762.79867217
      2008.56685345
      14063.12796469
      -2079.71852409
      7953.54439161
      3330.62238513
      1727.09795739
      2971.61018801
      126.08181254
      4741.82548071
      5281.12698696
      -406.43099857
      1335.45805887
      5007.20270889
      1723.36888643
      -5.40846114
      2298.37604657
      6163.78357109
      1964.02262964
      2444.42907725
      2762.74623073
      5759.42060368
      2806.20035390
      1557.76609147
      -1132.61431872
      -1718.14496629
      2197.97544588
      -1289.67884750
      1172.82608506
      -2763.05962918
      4682.87473325
      574.20693145
      -1005.92798684
      4851.65427022
      2217.14599936
      2894.89447603
      1583.56657628
      1352.06656683
      5947.81872541
      5197.11578919
      3382.67051807
      -156.14964962
      -520.61321295
      395.83243965
      -879.97708079
      -2146.07170121
      1029.66574669
      2568.21180458
      918.27956138
      3562.45875465
      -1764.01409233
      837.38668797
      1932.05501180
      -2042.42739749
      2354.22102028
      2027.55324299
      -372.32557721
      2088.02584541
      1908.83338710
      -417.64184889
      -372.45665549
      1.07291867
      1871.26563063
      -18378.22992136
      -2144.33195395
      8970.46547617
      3365.83587701
      248.29806205
      3087.83260896
      2153.76941027
      7662.27813570
      2665.85765899
      -689.05532781
      3834.15236952
      2887.44613388
      1286.84780503
      5367.64834448
      3638.01509179
      -102.04021628
      1223.22529321
      3677.32215107
      -2915.25795053
      3574.29048747
      -1136.39436686
      274.06952423
      113.35077093
      -2245.74377319
      2256.92508744
      2089.15467721
      535.61985821
      5850.68795413
      605.55029375
      -4628.84527014
      2023.92646496
      621.96194506
      3559.60999714
      3188.37450648
      -3468.83712206
      -5988.38265974
      1181.84299679
      4963.93471221
      3157.80997137
      2845.72470151
      3069.56364778
      1558.01810210
      59.48395716
      1164.15630309
      3535.35096805
      1807.63422415
      3736.42925042
      -2739.25312379
      1832.31803155
      2362.75868529
      87.16372153
      1782.54176840
      1363.33719429
      2498.21968715
      1132.83452036
      285.61588098
      -216.93567793
      -1388.04223909
      1271.72258194
      -842.11987790
      856.28207987
      787.19316296
      -2204.60624712
      -607.17279934
      642.58101679
      -1023.64604246
      7373.49751740
      3266.10665149
      9291.73797490
      3417.85008881
      5134.84391227
      2853.55926396
      643.92133086
      -493.39776642
      4482.05278400
      2163.42719144
      1130.56487361
      3398.28276499
      1236.47802229
      2460.49393223
      3593.80353399
      -829.08300611
      3143.12042272
      10029.70758822
      1860.28990083
      2174.27368564
      2542.13276068
      1646.14262767
      1794.94803118
      -685.10732467
      5548.72349847
      75.05403168
      2108.42363953
      1783.23752135
      -1944.34625522
      1052.27222932
      2060.89152353
      2985.57315814
      -439.89302069
      11262.82474494
      -407.51590437
      687.10383438
      825.17200026
      825.94616510
      1779.04503662
      -70.64745405
      1845.13072714
      2033.27336265
      4647.85878692
      3785.12252423
      2797.51856665
      1226.65408196
      1609.33062584
      1956.43862206
      1227.70511109
      1798.11478115
      2201.01347686
      -489.60070024
      2008.26524568
      1039.08464922
      668.73952588
      -197.21058066
      -862.70001356
      978.22694013
      -2259.83237382
      608.27613532
      414.04649774
      2229.36128884
      -2123.51530822
      -732.89934494
      -599.14519639
      332.48731846
      -1927.33186920
      1581.15954823
      6880.54622554
      5392.52400949
      2477.02483678
      7293.95935506
      18276.32972983
      1517.53793073
      -4462.70879298
      884.82461643
      1542.65442750
      -507.33640228
      2090.40626661
      2853.78381749
      598.18227048
      5128.82955588
      -5893.02700892
      1763.20370481
      1006.41663733
      2925.56626150
      1654.34324514
      -2277.19839108
      2737.04095415
      4573.68161855
      -616.82346752
      1739.65718015
      3836.85805085
      -392.10060788
      4304.15255815
      41.99935637
      595.86764021
      4287.42758043
      4367.11584051
      -618.74409522
      515.00095108
      -1166.88132125
      1264.40302743
      -1580.82226243
      1333.46425461
      754.92771495
      2064.06275953
      2600.72879615
      967.86884858
      52.32813216
      96.20020519
      675.64678120
      69.44687892
      820.75579249
      1121.71333567
      -2197.47357526
      462.59647161
      1690.36120648
      170.32215378
      4908.57733337
      379.93092096
      2286.62275929
      648.90996838
      788.93148884
      1537.24050974
      3892.96725961
      331.99167138
      906.19912066
      -1002.77567915
      901.96192555
      195.51884066
      141.28715387
      2264.56225372
      8214.92761293
      4906.87971793
      5309.64682869
      2948.75930102
      4785.69193424
      2833.36375259
      11159.94505174
      591.58355447
      3376.87243728
      2774.25051514
      1126.05252166
      -129.26937289
      -1272.02115808
      1284.94557154
      1179.03313974
      966.51092504
      474.53983910
      916.87920413
      3051.71799436
      1552.32963633
      1106.29894507
      499.31364679
      1726.58141018
      1254.73447290
      -513.70713392
      -4103.62137733
      2739.44523611
      1829.99791865
      -476.21157376
      -916.79857822
      986.17203677
      954.21273126
      -1955.17004022
      10847.00930415
      -8274.24288341
      4521.03063306
      1560.39044244
      2481.12976768
      2512.53259026
      -672.06711028
      485.23520147
      -879.88480688
      2440.14885176
      1952.07930627
      368.48431038
      -1655.60617674
      1691.48116019
      114.19385632
      -1606.70189387
      -11.59253515
      692.45800940
      1513.81845727
      1689.12470924
      1577.44834249
      89.43786056
      -579.95783572
      -413.27922973
      1216.23122657
      809.07513278
      1655.08209955
      -590.74593338
      1260.09558271
      -442.59469163
      60.92966156
      -143.53491425
      11818.46737606
      12748.43550264
      4502.70488122
      1075.16531577
      9379.94398483
      240.18086364
      2887.78952978
      531.91382606
      1511.13229833
      2195.89921926
      5389.64946991
      1143.29849205
      116.84721088
      2114.72195293
      346.46285828
      4604.89924349
      3015.53616303
      -1301.73448174
      -1387.04039693
      -445.15191238
      2373.42242164
      2227.25318018
      3622.39532350
      -196.99444554
      1535.81445181
      67.85189454
      1086.66330399
      4097.87318433
      -1749.29758169
      4059.96524624
      4526.90554355
      319.75321756
      721.75402550
      1384.44100330
      -644.84055847
      2448.88401247
      652.04453041
      5952.27890229
      1081.01611279
      2594.66823405
      2965.82476841
      547.59521101
      -2022.98273061
      -4410.38660019
      4930.28295032
      -118.50375629
      3114.17085610
      1834.10433735
      907.78838970
      1233.04011413
      2.74419767
      2316.36705435
      1185.01110758
      1024.43736419
      302.70509212
      437.87490228
      -1306.92973715
      1583.65440506
      756.40653885
      -960.53390783
      2410.50010407
      -739.64440958
      19.90937748
      84.97664384
      100.43250718
      -90.35253832
      -28338.34729544
      5295.45584870
      5306.93666664
      -3268.16859174
      -4650.00529351
      4018.85112800
      -4077.99252786
      8890.68396017
      2360.11436095
      5945.91709465
      2519.99768644
      3448.21799300
      8341.43851666
      1262.60682332
      217.72261233
      312.84189901
      3324.27886290
      2347.03551339
      1592.48283575
      1835.90332873
      6587.20121643
      2422.30363320
      799.75902615
      5534.07505454
      -567.62306567
      -3762.64066804
      12002.20923425
      -2469.92415996
      6196.97159325
      1628.17335432
      12520.46364563
      2757.07959769
      -1803.23043663
      -1486.14080769
      6640.80770939
      3360.75410664
      4600.92518372
      3606.46338098
      1173.84452678
      -839.43043647
      5621.32046112
      2650.50274364
      2466.65492801
      3049.30099258
      2626.18303712
      914.81827751
      -4502.99148876
      1234.06658230
      519.05552345
      2717.37387856
      1194.40377511
      2840.25764197
      511.53440818
      1260.96728355
      -429.93699641
      -279.96697553
      275.28293367
      -79.48935924
      541.00832944
      419.62381949
      -575.98563585
      -973.62389867
      -292.78653484
      697.34783664
      610.65311910
      -774.57961889
      3446.00775451
      2138.85597308
      4551.97906292
      6295.26157235
      3327.81346930
      1988.81153397
      7182.15662068
      2132.92442547
      1492.52624013
      2647.62373170
      5075.03843353
      3698.57341344
      9190.83029951
      -4110.21735289
      1707.98715722
      -7166.69461196
      2256.56168880
      672.47395372
      9047.23572994
      14690.72058656
      9150.29613482
      3918.10587622
      4724.57606192
      7742.22235134
      -1502.33672753
      6389.63522817
      6889.25007035
      5514.75551168
      4141.14332334
      867.50585744
      3012.26701788
      2444.13572461
      3166.39017531
      -1268.30382346
      3095.18454460
      5776.60770929
      2045.93715646
      -844.40424068
      8623.44324867
      4891.23748380
      2521.09320625
      2454.12168995
      730.19133923
      -1241.46973878
      -1384.86581783
      -729.72479781
      876.76515110
      -1275.78175139
      770.83738367
      -473.43875129
      1279.73049165
      915.36016141
      1726.61605966
      -1138.43937013
      942.50447069
      -344.64380953
      -382.26393738
      135.05290149
      559.35756993
      1398.17067617
      -578.88253735
      -663.89042670
      155.11291066
      369.55981794
      -654.19549430
      499.33484144
      4974.68202290
      3081.65646652
      4609.70799022
      5521.94472171
      2986.37847953
      2690.78331258
      7455.81174843
      -1329.69753371
      6617.31944690
      5246.43817694
      8226.61650892
      5686.69774166
      -1981.32319728
      7591.22707992
      5534.20863803
      6414.36785410
      4426.03252984
      4678.95872892
      -3009.64257808
      1578.98070124
      927.70579952
      2455.07016763
      2643.00957463
      9545.06346802
      861.80259950
      5589.93263226
      67.44978536
      9144.85242094
      8163.94176112
      5374.53216320
      4863.73581774
      3377.54132938
      2750.17648980
      1192.02406824
      1701.90413135
      11673.83409213
      1233.33286919
      681.21315904
      2823.49668600
      -860.82874973
      4420.83563441
      -1809.69101701
      4132.43322092
      617.51158947
      3790.17787490
      -1800.95844186
      -108.77203697
      2076.94813534
      484.41622100
      754.66283538
      1031.84802220
      1724.29812439
      716.56630857
      1069.94081427
      373.16924465
      1394.96301942
      -220.09365982
      66.71251973
      2311.03296723
      1036.31878620
      267.00766087
      -156.47728778
      219.31460372
      426.55778653
      93.97032247
      461.67680512
      -30962.88851667
      6240.68760512
      2856.19399711
      2199.16075135
      -1536.64555799
      2840.61198002
      3682.66485717
      1928.82989850
      5069.84770314
      5772.58997167
      -125.71001156
      771.59663307
      4762.38055595
      -642.43932131
      11216.43722835
      4653.30621713
      16023.48183861
      -1024.72156931
      -1135.18951743
      1670.27290794
      2072.85724776
      -184.45016555
      5294.46555950
      241.62694598
      -1453.86339347
      6288.62358116
      8273.37111572
      6451.26499292
      8828.64394642
      2462.88330228
      459.44335184
      -1578.41919356
      5921.50458028
      8639.98550145
      5481.33976274
      3158.85485553
      -866.36548781
      -1368.09746127
      6009.06095877
      10663.31635286
      9744.38534344
      3312.65290273
      815.81573135
      2184.95120882
      6522.97792389
      20.88163351
      -2113.84549729
      3582.06302415
      2035.03083979
      -1981.94874423
      655.69931937
      2322.84134069
      606.50776058
      508.22591068
      -111.34933935
      -582.41997478
      2508.35101188
      1877.66208871
      -461.28780322
      -569.29992029
      -287.11818150
      109.04311122
      476.23944089
      -82.96805031
      -446.61867202
      -115.28727653
      -19317.15986296
      5241.37857571
      449.58868534
      4291.62206237
      4174.48514482
      11622.00104660
      1600.46109038
      2935.35246337
      3680.65988656
      2211.49876400
      5653.45179586
      7769.08052989
      3357.29798699
      9097.88012692
      3348.83855063
      5130.18545907
      3873.61883265
      7647.73644583
      4395.74723384
      1936.55793420
      -297.62770579
      7385.73161323
      743.34224955
      5221.04022280
      -253.88101914
      -459.55938395
      4655.24601599
      2240.94887438
      3498.83376358
      247.00014919
      5330.08650049
      4328.53796503
      4421.61458976
      4414.95041005
      920.43837733
      330.63756294
      1127.06346357
      -1277.25405034
      2528.75094811
      2311.86180376
      2604.02758660
      -847.59768918
      26.77565456
      1281.83302778
      -1170.48851558
      -148.73634231
      482.45479360
      -407.85587088
      -2110.51739767
      -66.53471145
      183.51003570
      2076.37838370
      -2597.28315043
      1058.73185144
      1347.25673624
      1569.63094775
      547.70754566
      391.84381596
      1506.69184984
      25.14800432
      1495.95200549
      475.42403051
      316.79708589
      258.47248771
      -270.25349524
      3.87246255
      3639.73673670
      8864.07704399
      1769.22868331
      3245.61071389
      3353.24733216
      1492.74283323
      3139.08129478
      7122.72186968
      5758.39404225
      6882.42949078
      4794.99032510
      11480.68491187
      8949.52318839
      3673.79716384
      1599.47007970
      -7221.11946397
      -1524.62707463
      5810.46632078
      177.87814010
      4034.59045940
      4307.17838627
      1754.12239998
      1402.58656030
      1618.25955389
      147.78155462
      5790.15250211
      -873.52062497
      1980.17838908
      3893.21116708
      -2326.36870674
      6111.34477728
      1310.14132642
      1394.70709097
      4423.14575134
      4230.48288814
      2025.92860334
      -94.26578461
      -46.06107081
      2882.95965514
      -3280.37285659
      -374.16636826
      709.85380358
      3977.91385953
      699.19214611
      1671.11992798
      2173.89983697
      3632.75241070
      5210.76358135
      4027.90449754
      2911.18602626
      1385.30052833
      357.80565177
      1832.99914015
      560.31704999
      194.97908359
      -1638.77972994
      6.24095133
      2428.78512950
      1198.60590585
      234.64923555
      -80.63781234
      -911.95079074
      1268.21075313
      625.98409878
      23.84435380
      735.09326036
      -264.59458882
      4884.14012357
      870.39567929
      10522.02223584
      1029.75989770
      2497.93025399
      9184.00071517
      8660.31594061
      5568.72957114
      3908.83627472
      1728.37431545
      2471.39819440
      5921.99382670
      454.93383816
      -2115.16288942
      3163.24395444
      1212.37665975
      3700.58042156
      379.04974727
      1394.70187552
      2718.53786682
      2349.09257995
      250.22370463
      1994.18144332
      3014.80144362
      1295.21802689
      721.61942703
      1940.55767878
      -1153.79881970
      3190.81011451
      7597.22169225
      3542.97814437
      2575.08186586
      526.45498976
      1301.58462425
      4114.50280084
      1941.77632815
      1637.97132434
      1335.53596161
      578.64901512
      2462.83270567
      1902.15655559
      1454.45487828
      -1607.38177722
      -503.69589513
      3256.21933429
      384.29940795
      2083.57285424
      493.27839163
      -1042.84167377
      4442.78974489
      3444.60148400
      2477.74596300
      4029.83230434
      5552.60367736
      1052.43547583
      140.62215313
      810.87514215
      -2293.33372505
      -512.41051677
      629.47782247
      749.35631812
      6.20004415
      -304.38618457
      -281.58050369
      940.21097414
      -40161.08078057
      7223.49842049
      4504.12950529
      5794.29510300
      4058.91863732
      3837.29905191
      8566.10697264
      -675.22223290
      3657.64430421
      1400.11078636
      3242.52955825
      1976.89935480
      1936.38227195
      6609.61911552
      1583.97824495
      2156.00410060
      7465.75848918
      306.88358567
      -2274.69212196
      878.24755877
      937.67673515
      1687.08668089
      -340.54458181
      -283.59407757
      419.17139047
      3109.27601726
      396.59107838
      -374.25716596
      1152.59675951
      -721.41494989
      3335.91926169
      2575.95216450
      3472.01762735
      -921.81381510
      2381.80056426
      -1075.04472586
      3812.50306422
      4136.32041274
      1403.57533394
      866.24213151
      1110.20608164