<?xml version="1.0"?>
<VTKFile type= "UnstructuredGrid"  version= "0.1"  byte_order= "BigEndian">
<UnstructuredGrid>
<Piece NumberOfPoints="5123" NumberOfCells="5123">
<PointData Scalars="Pressure" Vectors="Velocity">
<DataArray type="Float32" Name="Pressures" format="ascii">
      -79.11279075
      -17989.22313257
      -24734.42550041
      -25493.28008765
      -24261.99582305
      -28560.32273856
      -29272.80775739
      462.53548743
      394.13524327
      -23569.16128140
      361.93422431
      -22140.43487678
      -440.14735472
      295.62891165
      -20993.64946475
      751.44331326
      891.79483094
      -27025.94562458
      585.80176577
      475.94947451
      1043.42288720
      115.40759173
      -1382.55608458
      2459.23562746
      293.92891520
      -1396.57067258
      371.53172721
      2273.14452449
      -115.19422458
      -993.46759841
      862.77309988
      933.23866342
      762.56285720
      252.56790331
      -61.36937176
      865.06249341
      700.64381038
      172.65460151
      1868.51167180
      321.90995236
      68.49094073
      1496.03773704
      115.58320772
      327.70366573
      201.12570417
      160.53926877
      410.41787154
      415.52299035
      503.59068302
      418.97881389
      1360.94546140
      745.91225113
      1542.34721839
      3498.15613999
      -2911.52936090
      -1112.52542516
      595.41651196
      -1106.35005081
      -737.25081504
      5729.80630958
      2791.30222282
      179.14265465
      1388.54034853
      -253.33846949
      1444.27135973
      -169.86146735
      5265.33153416
      5389.50317142
      363.37038237
      1933.40278813
      742.93076948
      139.72649391
      1471.08873683
      2158.94312391
      407.11660248
      1717.80213304
      1011.22332757
      1270.82159397
      227.84825418
      896.43632678
      183.02810562
      510.98736918
      1715.84259003
      414.62284591
      644.22224635
      -217.35418405
      716.73244939
      4903.13671568
      227.62563103
      -1907.15477877
      2736.13030984
      2805.85896669
      1343.15907797
      746.45335233
      779.65998537
      -26.39554784
      -980.16686153
      593.37470853
      1773.30346643
      -847.07820083
      -1552.65303858
      5981.82231762
      237.46765150
      -1701.29259322
      671.44212344
      589.63839128
      1282.35136529
      -2352.44602819
      1134.54339131
      940.95483290
      262.55887296
      1003.56201778
      96.93694454
      403.51596432
      -601.34254743
      -240.27705540
      -221.16374617
      -923.03477936
      405.01697649
      459.11171083
      2787.26513983
      883.35377421
      2025.72464149
      62.67879276
      4369.13999665
      3647.57234648
      392.71358246
      763.59701313
      -1919.40812924
      7349.04319234
      596.86270707
      -9918.89611452
      -24148.52814249
      701.87889284
      594.02286970
      1255.41594786
      742.08403880
      3566.74181632
      2555.40605173
      602.18497448
      351.52545160
      469.07183776
      805.79634608
      344.77340346
      -885.91766819
      -275.23301784
      201.18459648
      598.60795735
      1112.77842253
      -546.61968700
      -128.20573140
      -416.67368381
      1878.81117139
      -1057.11222972
      -412.70105043
      436.12951773
      -2640.75886862
      590.40715520
      -3325.90498387
      98.12824529
      -1927.27130965
      -282.97574614
      -258.75354010
      193.87266460
      3615.31413174
      681.57740261
      -1483.79671640
      -31.18657715
      1842.07754146
      9212.73749948
      -176.08614824
      -153.60725558
      813.96455254
      286.79139618
      76.20991546
      -209.22684224
      -353.27975536
      122.42144643
      -471.19243489
      -175.57317264
      -150.60506545
      905.22364201
      510.89518697
      1526.76375551
      2171.57062205
      7891.54200975
      -2440.83870203
      -2042.60313069
      1123.29526473
      3373.31015686
      3433.12908305
      4316.96857894
      12242.74015260
      -2372.68211968
      802.84099638
      3324.50238866
      854.47335861
      409.71690598
      -18716.99888393
      1028.47558275
      1169.75224220
      1660.20271850
      5332.03238948
      -979.05192435
      5247.52365613
      3692.98717784
      1083.58306911
      1042.11771783
      4156.33433667
      309.15468843
      2333.86286554
      755.69280061
      4174.12304446
      2902.53709634
      702.03577553
      241.28333693
      568.35740182
      -2761.42875275
      -535.37732037
      260.46763063
      1551.75697373
      664.80364784
      113.51365434
      1141.79412090
      -214.95624743
      974.09718156
      465.41738205
      227.02567685
      887.95628447
      1487.79459089
      797.31811463
      -150.36127335
      2254.02073811
      355.25708319
      348.48423347
      506.65488876
      333.79284540
      809.89511649
      -407.62144000
      -455.42012890
      -295.66911626
      2296.96408360
      615.72584749
      783.65703959
      1246.92137600
      -4708.54931906
      1974.47935323
      4258.62748047
      -2919.27372638
      -261.74966669
      5081.18662365
      1553.15029359
      3615.46923997
      1639.62542129
      -2254.58746664
      -2376.00676732
      -4466.59118918
      16470.96897080
      -14821.77166617
      -7870.71554532
      1722.37154735
      3501.92293260
      3582.66938851
      4934.96832153
      -27399.67254656
      3438.75131841
      4060.09024874
      1714.53289820
      -7.67541538
      212.98218869
      828.22418020
      453.52584316
      2698.27789864
      216.43261713
      2220.42994348
      422.60808038
      -350.08100907
      512.51898187
      -372.85170561
      8.01136958
      -546.65455331
      387.84768646
      308.48497125
      987.30485805
      413.94866240
      422.66472759
      255.60016684
      250.41684745
      569.79886863
      206.32130580
      -8.38522746
      588.52381486
      -43.92419089
      -251.43537106
      335.25108352
      719.02732126
      623.71904052
      127.99258874
      1490.86137495
      641.09295216
      2735.27485454
      196.82724197
      1672.47917799
      -43.13289652
      12.30390337
      -690.39956583
      10614.28719057
      -138.30821151
      2100.15619947
      4425.58418069
      5952.92508125
      -317.44334236
      6396.34036079
      892.05104014
      4689.43531212
      2128.56336821
      4814.33467136
      3582.71649853
      3536.05005086
      1907.32244855
      4425.68488418
      4892.79147902
      1844.65695150
      -1701.77606060
      2024.65967369
      -3375.27147514
      5717.12674646
      4863.69279984
      759.07589512
      3098.88398401
      -20980.90566408
      7031.78855350
      2167.68136674
      2506.30649427
      5940.80903457
      1521.02100102
      2646.43613729
      3027.98505131
      1759.11687547
      2221.84240144
      2805.42462047
      -265.56764939
      -33.13946786
      3964.63973682
      5206.82509695
      1125.05014194
      1036.92277580
      2585.87262566
      1471.89158857
      5278.59770133
      2499.04973011
      420.80834633
      68.21224733
      485.92897405
      2688.42072328
      3981.95380670
      209.88004236
      715.80370084
      1303.10280135
      1269.04069999
      1620.75149111
      25.62097688
      164.12073356
      800.88348539
      871.21621906
      1193.74768663
      2229.58897851
      -1694.98598035
      -648.01352538
      -672.63262712
      1923.69098827
      2776.84909762
      7109.50117769
      2216.92318479
      4945.92298370
      2489.35860157
      -1491.65102119
      1943.21701283
      793.63784432
      6174.98592141
      2220.23214042
      -685.84546792
      14549.86162214
      11082.20936859
      -823.64844924
      6001.26785057
      -5766.10130204
      7101.37963492
      1922.71767563
      6221.63845936
      4017.34034146
      1771.79234920
      -3565.74069424
      520.41503062
      3332.47690244
      7150.15015793
      2503.11287057
      4959.16546061
      449.42866874
      4393.30824152
      6241.60173033
      123.41567332
      5399.32195720
      2394.73275228
      2508.92397296
      5485.05051637
      -153.49744044
      2128.43620165
      1221.65562470
      1145.01604641
      1282.56913224
      291.52947437
      757.80058009
      1088.02737093
      2767.74528764
      -384.18176458
      308.11231739
      151.76189192
      2155.81718230
      3302.12081734
      4380.44380882
      2310.47941301
      779.31938854
      5733.05277493
      2858.94551145
      -84.93726930
      3651.14317604
      2011.00593563
      3184.28090468
      974.52004322
      1654.87290399
      -1515.56321805
      4277.02832960
      987.33131396
      9135.17148184
      3813.32765992
      2766.60085799
      2634.46852863
      2829.69808408
      594.50032476
      2480.99274195
      3687.93659412
      978.49314120
      660.94727451
      1426.14196320
      1440.13281297
      3230.06440029
      2614.51646727
      -812.02217958
      11241.86623694
      10044.77372616
      2064.46940082
      2233.35857191
      3073.75224382
      6474.10230773
      9298.03248048
      5567.85374594
      2359.40344850
      1483.92795393
      -390.64132395
      4405.88087773
      1461.06446417
      3734.78952664
      945.96044903
      6544.16116614
      3522.28395261
      2162.45020592
      1812.76422840
      4484.07073076
      457.88904336
      137.37416522
      1435.55918657
      3161.90820874
      5931.40337287
      1989.99215790
      2042.67838183
      822.04296606
      2788.08189248
      5025.28363667
      2326.44731553
      1466.89581653
      2744.60988251
      3195.80608298
      5387.47299404
      2179.73167603
      1865.90626451
      4638.55373814
      3152.91091286
      1128.24172857
      5768.60919856
      6552.61178841
      4799.24788810
      6971.55926896
      8856.54444549
      3014.71284900
      3320.24507856
      4951.81317416
      5566.67056803
      -3331.44843564
      2740.23010029
      389.31272452
      6151.57151366
      6357.18287579
      3388.94824890
      2406.71817682
      1842.58143657
      5725.63897213
      2105.80427385
      1358.51275082
      1425.04427239
      5017.47149562
      688.45400043
      2243.93783002
      757.00206819
      -1233.66898612
      7604.39078211
      804.32128013
      3898.77274894
      6857.08362940
      5273.85197213
      6122.38507584
      3492.72624719
      -239.33537729
      3158.62051816
      1803.26810129
      664.03670531
      2563.42473488
      3092.60534370
      -21336.21804100
      11550.11986796
      6607.85363719
      -2775.01805498
      3211.69823148
      1020.25537251
      3008.66179926
      2295.46080222
      2132.92718564
      2581.72701260
      1422.47953223
      6093.23548486
      9673.33916841
      -4085.43312210
      9367.76947485
      2808.33326061
      6006.39158964
      4505.49770625
      3545.10144654
      9969.65320761
      10612.16941367
      1680.01519481
      13122.32097429
      1884.39629094
      9236.71629315
      14290.52399413
      10545.65936075
      5304.54098699
      3766.31222462
      6789.02222094
      19692.49024631
      3076.60628467
      6076.29585812
      8708.57898071
      10452.60770568
      5652.47501894
      5254.21717352
      4957.54725914
      3237.19184476
      10938.18738192
      -57.76408472
      6108.92882680
      6503.98277513
      -5265.04345132
      6116.74845064
      -708.53521589
      2722.14874312
      801.17703547
      3343.04372059
      149.99186011
      2313.20693985
      1222.71256542
      2873.08193982
      16856.83006837
      157.26622961
      3761.68550284
      6452.94616551
      4394.14078346
      2781.56254795
      323.23529970
      4221.64099066
      81.20486477
      -213.49813289
      899.75415150
      1823.85764610
      431.40102260
      5143.53555321
      -16161.55176151
      -4494.02209801
      -1974.36013007
      2557.41077913
      2488.79268819
      -24.52494799
      2826.40061798
      9485.04726205
      2733.75871135
      4648.69018161
      6105.08665137
      3284.86924707
      12776.79439147
      5797.22858845
      7011.31818787
      -3649.22770004
      9899.87776933
      8911.01167914
      6994.26855905
      8930.83130108
      7707.80946862
      5438.76556749
      4770.39674109
      1597.71604600
      2091.51123645
      4259.83670273
      1363.15316618
      7120.61735154
      4918.96208597
      170.89235027
      3743.09680867
      10756.63790693
      5173.78350705
      10692.23106291
      6135.30314999
      2465.99844146
      5490.55060023
      5029.48614401
      3804.60963492
      3536.35288530
      4360.36275535
      766.42891581
      1044.93173547
      14473.13860542
      549.30254003
      3325.67118905
      -1082.72520456
      2577.75448040
      4816.83746849
      2888.80428397
      1286.61303097
      12583.87345554
      5383.90948733
      3933.62031557
      390.46464742
      6156.11882017
      4565.62624905
      1224.06420931
      -236.29284068
      460.11483056
      5866.69403196
      2703.82121933
      -3056.56146016
      264.08011569
      1991.70792309
      -18378.22992136
      -5122.03323266
      3519.43866879
      6019.55174798
      4483.19251312
      5180.51485103
      11563.94173498
      8249.19326140
      13847.40705527
      2471.36760312
      5987.47220033
      4861.95634951
      6925.30741528
      29245.18498471
      11811.88550547
      4690.89023877
      4771.52778497
      4273.52879908
      3855.23564464
      3354.22938885
      5645.42794361
      2485.12168800
      1439.14381965
      3467.31227672
      2425.84795321
      3349.53772016
      6.40337180
      1531.81727453
      593.79300830
      1215.80943461
      4660.50326046
      3078.89023601
      4461.02512087
      4733.73134718
      -5208.06168725
      4291.33325983
      2277.26089392
      -133.59126359
      6327.96820818
      2469.54809419
      -415.43952104
      585.24375231
      3407.99524259
      7246.50077929
      807.32104713
      1586.03335847
      2768.38978874
      4056.58214322
      3219.93954905
      -728.65461450
      2843.01809717
      4747.86141173
      1027.31058514
      4641.60436658
      -37.10877864
      7513.41276916
      2662.35113733
      -2265.18968469
      4580.87811339
      2608.09917924
      5533.59328897
      3238.62575245
      1892.28625866
      406.61911143
      5423.68591000
      3552.68643107
      -15857.23209146
      2066.22091642
      8152.26999132
      14180.16329850
      7984.07346485
      21545.18575179
      10733.90470445
      12902.75193340
      4256.08918921
      9129.83296417
      13121.02690463
      15648.92998436
      29205.61111127
      13863.80207313
      4498.19751881
      2395.78876412
      8106.53916331
      4772.05618279
      4057.35609784
      1774.93754861
      764.42370965
      4214.96602976
      1912.83474905
      7890.60454190
      4338.53362100
      3499.38174759
      10852.98900876
      7159.27682722
      559.99094833
      1866.57909303
      -5172.90436133
      3122.56657930
      5576.64483471
      9146.08168072
      5908.63364914
      5373.75435297
      863.96138347
      9122.35817845
      2605.29574757
      3806.78139238
      1442.49197517
      1142.15638851
      6388.82761697
      7628.14749959
      6965.39601206
      2321.25713354
      -15.08233019
      -874.22837154
      7700.56665038
      4005.80117633
      3235.06150208
      2559.00022555
      3959.11048366
      6134.56161868
      14.02337242
      675.50983512
      -350.50122652
      5820.63361290
      3704.43432636
      -466.43136545
      -6598.53363420
      -198.52684782
      507.72940290
      777.19230931
      6060.03021104
      3077.24204359
      -1162.67901394
      3313.03711029
      3614.96376135
      5383.04185351
      5062.72035853
      5038.28230882
      11225.33588776
      5613.55910942
      3526.55153362
      9765.56464336
      2748.15736420
      3016.21485506
      1401.10098724
      10067.41144800
      5188.49060337
      1344.60455520
      3814.13127199
      2344.40190437
      1454.92924804
      3122.63789158
      5067.54599986
      4409.71584604
      4625.42254527
      1408.49122959
      2331.14176785
      2461.64853840
      1069.97089202
      1626.57786267
      7940.76194448
      5675.83469761
      2783.88892238
      1862.93018323
      1189.86702553
      3453.44342510
      5852.68034991
      2859.87537732
      62.71153961
      948.79745744
      1167.48347544
      4003.11473440
      -1531.03082805
      1780.50067989
      1776.32147881
      1018.65856278
      2027.53284070
      6561.26147025
      2156.89496311
      -1065.02801962
      4447.37540453
      3932.31515115
      4077.68725183
      219.19723401
      2656.11102250
      1996.42347090
      -822.33534927
      -1075.36287464
      3366.70942866
      510.21698638
      929.67858178
      -3781.29293579
      812.13988829
      3147.83171740
      6473.22308310
      -440.26167812
      3530.67641882
      9204.38388215
      -7886.36499036
      5338.47626553
      -275.34414053
      5558.32396490
      7898.07101456
      5994.62957719
      4218.22371200
      12078.75129071
      9158.26293944
      3886.94797922
      9973.64693148
      -2001.81742429
      1197.70653315
      5866.76951339
      2257.07213530
      6810.51331283
      1413.06029317
      4572.34280822
      3582.71740489
      1065.30462918
      489.52751656
      3327.35468734
      -215.33341715
      4824.49161641
      2412.44471181
      2130.16075128
      3332.34104314
      3493.17134960
      1683.60666177
      10213.93653571
      1126.82047359
      2689.90836994
      3631.37700452
      3418.53254046
      -3116.07990706
      4379.82020614
      6307.33405122
      169.50704899
      1055.79201964
      -1176.14409524
      -731.42848751
      3051.14338352
      3464.99511641
      4499.32740046
      -206.44095752
      -282.08789682
      3457.96242296
      3050.09892803
      1067.60017058
      -374.17022264
      2937.85479866
      1397.47228817
      1389.47227383
      1593.19733966
      -393.41978808
      4514.00541131
      5292.33639402
      6346.94092606
      1815.15916664
      2589.13142158
      2277.42325590
      312.65243829
      537.70131718
      6158.22004952
      7174.24019978
      -1805.89216304
      3683.04568294
      11057.50764475
      17349.29908181
      10456.16708038
      9423.84427983
      6826.27655853
      6890.48709644
      5083.80064986
      5702.45151902
      4795.26886774
      5914.24931652
      8374.06680733
      10490.00122477
      1945.16948721
      2067.60300858
      3136.83706118
      2220.77489682
      3427.73804184
      3066.51554015
      -851.36441764
      2167.69852515
      -1346.06611326
      2441.69137851
      7811.16930028
      1855.96891649
      5378.48917588
      333.34954234
      3985.11309571
      5508.10164378
      699.41431079
      924.47260183
      1597.28730368
      2435.06214563
      2395.41891224
      4267.25884197
      -1537.07090366
      2031.33068364
      2679.84006089
      1616.96871581
      972.54416262
      1751.29463317
      -224.64555684
      7669.43422682
      -1248.51587747
      503.21253191
      -4975.41879514
      1416.78033889
      -583.08296176
      3817.24684885
      -5973.67067929
      -8722.26392227
      -4314.54256036
      -362.36150282
      -90.95794834
      2159.04344872
      855.81022000
      2871.92451240
      542.34108658
      -1094.19050990
      676.49208505
      -3610.40657898
      2150.73667369
      1727.69991931
      705.67187318
      -3352.23583980
      214.28231240
      -28338.34729544
      16823.57413209
      6923.50835416
      2094.57724317
      19498.88668665
      -2948.18346461
      7447.14802376
      7275.19260519
      1942.25410111
      4233.19740030
      5901.56241325
      8889.48927625
      7365.24521710
      2408.42838282
      937.02703893
      1448.84585689
      1381.96206377
      3927.68181290
      3460.40334702
      4109.06952590
      655.87879796
      2796.14774218
      1952.22795949
      3023.68295870
      227.03087015
      2476.50346233
      5196.97543572
      3176.42779913
      3602.58908483
      2840.46200787
      -966.87193863
      1051.50415474
      2203.30948837
      2930.97006355
      -2637.65553204
      -724.04667475
      -371.06329831
      2937.26685767
      2423.49630251
      2024.15829123
      2932.09078227
      2992.96162968
      2057.49286275
      2255.15487221
      6.87844858
      1690.32413453
      2243.85029256
      -231.33261489
      -119.39955707
      849.31992168
      3384.98971322
      -620.25152495
      606.68165262
      236.38025920
      -233.52150824
      -7435.37267204
      2760.15020929
      5182.35503455
      -3676.34593558
      -2691.58042735
      455.24285334
      955.83267034
      786.01977743
      -2265.48650382
      9018.76838029
      7610.23682633
      4831.64670307
      9790.71697469
      13898.51270834
      2714.46000733
      5053.31307464
      4146.36363137
      3892.06370695
      5400.36219270
      5326.64621187
      1739.03948280
      2435.49280740
      1710.26315144
      1941.42838407
      2460.21891692
      2170.80973771
      3436.21924080
      1420.49972766
      2104.01019347
      1902.75249787
      2576.52982137
      3625.26330330
      1765.22577241
      3152.07703724
      3261.92926750
      4600.24591470
      3502.91882224
      5622.88493121
      2692.76703425
      1671.30673239
      1430.74872028
      1162.44872451
      573.61029396
      3190.39360447
      1861.14303602
      523.60283978
      2475.04907829
      -252.35091536
      1148.43766180
      917.78383019
      -3151.38994732
      -6.98345923
      2818.67273360
      -2210.50052893
      952.37993009
      -3804.03656570
      713.76837496
      -721.69582513
      -319.68309702
      -540.97262516
      2339.33763605
      -95.03710119
      811.39533789
      2332.28470527
      -1030.79848059
      2272.45687355
      1803.16492141
      4315.34040686
      1050.39268359
      5668.87109795
      938.59204278
      7126.20099877
      5093.70806967
      5018.96095557
      33.48312248
      10648.05817310
      1002.28906977
      1217.05907769
      11906.76116715
      16576.27345773
      37.94826747
      8042.93713274
      6436.86595809
      3783.25761188
      1290.49310546
      3406.52940422
      -792.00057876
      1077.20478522
      1845.97636703
      4369.16751281
      953.92816829
      2901.60852322
      1254.01076434
      1017.16289313
      1302.60280196
      1326.36339902
      1271.57346077
      -136.77731473
      2038.93562793
      1570.63796734
      1571.15490143
      1389.32552711
      4345.57473771
      2745.30321303
      1987.91507523
      2062.51855237
      1453.90975020
      239.88062791
      1072.55890051
      846.34763849
      -448.12884116
      1121.89059028
      2469.98792722
      1149.17205769
      757.12163867
      614.73423715
      451.83477664
      102.37648330
      -1039.49772970
      -979.12035257
      -1422.35482991
      -2676.75271053
      1070.90887829
      -2449.43121697
      1044.20155694
      -1060.85690218
      1652.07074884
      3224.74783781
      1396.38144228
      -3406.42804370
      9646.40146035
      -1900.38255726
      -1629.93939712
      392.52011893
      4100.18259139
      1965.50019671
      6593.86714493
      3824.80420124
      1449.64882208
      1574.34375245
      -3164.47269965
      2473.76865656
      2237.66986871
      -30962.88851667
      -5678.75686574
      10493.30148036
      10129.15876908
      6001.11853396
      3174.99223316
      2811.29872611
      -6543.78695716
      1034.43245856
      7446.86840478
      1092.27489214
      5206.23657258
      4325.72883005
      4133.14719608
      3160.33627799
      4230.22082564
      5355.46054079
      3404.03764901
      287.65719091
      2590.91708788
      325.98573735
      967.03401866
      2374.18315852
      1577.07122167
      1282.83530307
      2476.37227271
      3957.30881874
      3406.63623621
      1848.94124405
      789.04097258
      698.98713101
      2084.00600167
      265.20203007
      1000.05533317
      2326.41297632
      1603.84506170
      1269.24256565
      -437.75724713
      1758.04987528
      1814.52842406
      156.92863131
      -607.15750678
      1002.55562798
      1349.13388805
      -955.81845546
      -1086.43265390
      1959.39991542
      -1716.88195505
      -2892.22523183
      -175.98659114
      1801.06374925
      1649.97431029
      975.27639777
      254.02299672
      -6164.29300422
      -825.23135845
      12208.29964678
      -1122.40031544
      797.95322422
      -1272.80092580
      6977.07597632
      4562.24183588
      7378.00663548
      2861.15234499
      -5172.61121786
      3294.61739114
      -19317.15986296
      3439.32525334
      6897.62376087
      9291.61512186
      5392.11107703
      2628.39874965
      6087.90790369
      6188.04266881
      5669.11463097
      2279.53416121
      5575.97924323
      3106.77441213
      5720.41678290
      1424.41790837
      3932.00893004
      9885.01014666
      989.47748839
      5393.65572135
      3497.60243498
      2666.87534135
      3304.28826176
      2435.74971407
      -380.18813976
      -645.40527883
      2075.77930719
      2229.56868552
      3052.52426480
      3330.51429178
      2448.08782842
      3037.24691423
      2370.62762912
      2862.59729653
      3183.24608764
      1732.90460986
      2772.32172208
      1026.30141632
      -1320.92222730
      1124.68295713
      2933.06140297
      2511.38882638
      803.11044586
      446.33988359
      -209.67110016
      594.78897696
      1060.08580928
      60.54988934
      680.70207651
      213.64748509
      21.08133686
      -1464.81150303
      526.68115121
      -1385.30439656
      -4093.23996989
      -1189.64244291
      -918.07616229
      4559.60968355
      -2851.57542186
      -8817.59742513
      2660.26543073
      8986.78037900
      11766.73513328
      7903.49942972
      6369.91594221
      9944.21595212
      956.66371321
      1219.25911190
      3211.75720808
      7383.18287635
      27633.24229080
      6685.16687484
      4853.89643865
      1471.99293999
      3472.89406415
      5163.97108865
      4398.93524431
      4407.20334754
      5159.00579744
      4085.70698537
      6018.69417102
      10696.00521483
      3304.79708843
      1574.39293344
      3546.86717250
      1442.25054662
      -1017.19077167
      1855.72878761
      349.49217572
      1421.19447302
      1048.46794819
      995.05980114
      1765.52784137
      1084.54665385
      2669.22097605
      3504.12909292
      3161.27038259
      2705.71466356
      -881.08080565
      -373.66142789
      2532.72436069
      562.81571994
      1832.16261842
      -1120.40738045
      1412.97026837
      2372.78203161
      624.01376568
      -317.99488497
      1509.28676946
      2583.24290946
      -141.28746565
      459.00671435
      -1924.92617307
      2376.94013425
      -1850.92338693
      -682.16371803
      816.20665044
      337.47400725
      3378.86278897
      4674.12712042
      395.34744345
      227.25701362
      -1068.53657300
      -1173.53385046
      -4864.62875776
      10159.01734404
      181.84940272
      14494.98878120
      1600.15584575
      3434.86902667
      1720.24280624
      12479.18096512
      3189.45431683
      -6767.96377065
      2384.65988794
      1351.07896724
      619.23828808
      9025.40605521
      5514.16033478
      2277.08234433
      525.32358901
      4645.82058855
      3675.80883939
      3832.59150309
      3847.40922047
      1371.11892884
      7793.97592337
      2391.65313756
      1588.87268010
      -695.75231343
      1823.12210407
      507.69902879
      1662.40416692
      4167.35150531
      548.22478429
      1717.53476115
      2644.14423790
      1455.37943600
      1939.82716852
      539.51945427
      1676.83262261
      3002.33287735
      2868.50948736
      3261.38322206
      4758.72012037
      1074.99485272
      374.57193269
      1062.11180875
      -2820.43791285
      -773.76611189
      1255.39536956
      -962.40649832
      -241.41078132
      -429.30520797
      2513.83502616
      1008.12504421
      737.62223602
      -2924.59597549
      -1362.73791398
      -1406.73131518
      255.92233294
      1446.51551475
      -2352.01025327
      -400.19460487
      -2038.57067769
      -1050.23164757
      3240.10363018
      6925.31299039
      -1301.34353308
      1196.84605150
      4671.81208320
      -137.76591593
      -5469.21278218
      4735.58563949
      6173.93063166
      7911.28892661
      3177.24932788
      2777.57290971
      4691.96149680
      129.18896092
      -40161.08078057
      8855.82711778
      3436.65456597
      3419.81806776
      3831.47371182
      7331.74827553
      10263.72547682
      6373.07199413
      52.70919851
      -2708.52019184
      9211.80055149
      -6.06432541
      -2230.30106107
      3426.30941873
      3784.54807357
      1331.62805549
      3463.70821682
      4955.05844922
      718.75607539
      -337.94728512
      -545.32973996
      838.90450346
      1122.83977810
      -492.01617220
      1862.56176627
      1400.54187129
      2755.47980860
      6489.14078703
      1732.22515493
      -353.68577813
      1256.39575433
      1433.15391345
      3063.59123831
      -413.71429856
      -785.22430999
      2403.92177137
      -4334.30972244
      2504.78161592