<?xml version="1.0"?>
<VTKFile type= "UnstructuredGrid"  version= "0.1"  byte_order= "BigEndian">
<UnstructuredGrid>
<Piece NumberOfPoints="5123" NumberOfCells="5123">
<PointData Scalars="Pressure" Vectors="Velocity">
<DataArray type="Float32" Name="Pressures" format="ascii">
      -466.95295189
      -17976.87613550
      -22927.96253902
      -25493.28008765
      -24261.99582305
      -28560.32273856
      -29272.80775739
      534.10808299
      -1316.05808677
      -23569.16128140
      1541.29153331
      -22140.43487678
      -426.79914062
      880.24676877
      -20993.64946475
      -773.50601571
      -1720.12752359
      -27025.94562458
      -621.71588117
      1159.66014734
      2595.77048633
      -84.98116536
      546.57639432
      764.27387471
      167.72414610
      2812.49369474
      92.80824317
      424.84294608
      896.69684189
      -714.98491118
      -22.27358881
      235.66345158
      -5370.15422019
      492.98362481
      -660.03685046
      1439.95156100
      -13.81840815
      596.63967655
      1051.28634828
      -1605.34566827
      -621.88019052
      399.46990458
      -753.78722012
      330.63544114
      -64.08019284
      -494.76652203
      -835.88040916
      338.74746098
      -961.31116274
      34.14917393
      -1956.11841197
      670.33798101
      -1151.57659364
      936.28165358
      1401.79868156
      1446.58110669
      1214.73759222
      1695.49126377
      -412.43725426
      3962.70119927
      633.15335955
      -1509.54719782
      1185.03611959
      804.34448188
      948.86745925
      1584.08955935
      7047.03317217
      5389.50317142
      1334.01788692
      1239.20895842
      617.80164619
      580.92137913
      765.99529007
      1228.71158453
      1244.22365161
      2072.27982520
      294.00940257
      294.41962228
      33.07271221
      404.23828485
      58.86347391
      970.66713964
      2488.23624179
      -1081.91409213
      10329.27965649
      1480.04799298
      180.53195551
      5243.87252655
      -3226.24475378
      217.40319672
      -527.47500718
      -606.91823986
      141.61758842
      1079.70024089
      2542.34912034
      4398.39677936
      962.01553357
      -2260.92453871
      -1551.19367870
      -1374.90403869
      1374.95282146
      715.48333119
      923.47687801
      -1500.08637498
      663.60026643
      -4626.15746188
      -1103.98177131
      952.04902577
      -483.53629226
      -26.90473267
      -1358.98784198
      1969.56423332
      -496.95034695
      395.35155583
      -42.43049911
      1012.79412949
      1129.76236177
      -471.50489982
      -634.73413143
      -499.09595248
      1962.79127366
      -2172.08358349
      1706.53898179
      -636.55589809
      -1112.91622292
      -129.84498512
      891.25516946
      921.73344534
      -98.50543949
      1010.06370755
      218.59218691
      -401.45603381
      -24148.52814249
      2218.54298475
      2009.19333917
      -571.88766216
      2263.67259874
      517.38718484
      310.81046072
      517.76460674
      414.01661610
      792.36623221
      1763.74752441
      -1071.80335926
      213.98178716
      2607.79527342
      -12267.64437923
      903.31371024
      4252.78799364
      -2848.39485512
      1401.66896403
      3087.03121525
      1569.34523095
      2989.61212717
      738.23337337
      151.44410109
      1628.33511979
      -177.06833090
      1505.10238459
      62.78542814
      4235.58429659
      20.31138062
      597.63185397
      -315.59498225
      6111.89608995
      1528.94726503
      1456.98416508
      1545.90591808
      4939.77084215
      833.92328823
      118.32912324
      -2299.79414890
      1239.11836611
      2403.32268722
      84.90980387
      658.26293820
      713.34198927
      1130.23350359
      -1186.32019401
      -394.19325924
      999.24356954
      -99.81127696
      -1061.58498018
      2676.99103887
      -1379.62400200
      -677.51414289
      -2206.97277164
      -1978.30794642
      -721.75076996
      -2358.63089448
      -216.36638898
      -995.54427829
      327.15671382
      701.34911555
      428.22534140
      -258.83762519
      29.95759629
      -239.35672568
      -18716.99888393
      3096.87780980
      2326.63450788
      2871.06912575
      771.74960868
      -653.17580508
      2451.37167568
      -2135.20358562
      -1712.01347904
      3419.33571889
      220.90154268
      -182.77751167
      958.74012098
      517.70971015
      3951.65456489
      -1919.90764539
      2116.45904195
      1092.48020479
      5458.88398153
      9553.22135563
      476.22200739
      -1555.82573327
      117.58186303
      655.00215194
      1770.48043248
      2850.90373574
      730.81617156
      3980.48851890
      -180.71604291
      1902.54717366
      1253.29311108
      -3822.47352950
      3071.57843701
      -649.47856443
      -667.89564411
      -6348.59310449
      908.05329563
      1763.04938759
      -723.44227026
      1933.82654249
      1003.66034033
      -5328.86773844
      1038.39247763
      -208.05260129
      1987.89173854
      813.73529625
      -1970.89028420
      1651.16844915
      1890.84476959
      1839.42299646
      1022.30993738
      3270.64520470
      -1020.93127202
      -53.85383976
      3383.04268482
      2070.82288713
      -914.13033921
      -1426.78857536
      -729.71749609
      -481.82724439
      346.68857335
      838.23960881
      -1079.32081803
      320.92517432
      -261.13363545
      340.55823326
      -27399.67254656
      5904.65083264
      5044.70561984
      5057.77997983
      7066.57711678
      8072.23466957
      949.23867620
      1511.30380927
      2796.03280877
      -1213.00111064
      -2261.33192476
      -796.73497587
      1417.30771902
      2421.18047981
      2499.50737710
      1164.70282301
      5374.91879671
      1407.68616753
      1760.01695441
      2015.77549726
      1451.23188888
      2106.81640331
      1087.75714980
      1429.40358242
      6057.65815660
      3428.96030440
      -889.47876515
      2579.45698605
      -0.95763563
      776.44798583
      752.10763110
      7305.46453194
      4321.05660560
      1834.93871686
      880.88644091
      2119.73605947
      1309.06687773
      1790.76463491
      3760.66567459
      1631.28765229
      959.32318952
      358.39870020
      -345.93657927
      1636.47755053
      844.31618662
      1469.72698159
      77.31130656
      1219.98327857
      3436.63809499
      849.36511465
      2687.65017430
      1412.88949975
      -190.97937100
      630.88950826
      1991.91484997
      727.46122214
      -293.49845287
      2986.91909203
      946.69455279
      2564.64560229
      920.40937431
      1266.59770127
      -1087.55786286
      154.65809234
      -799.63321916
      -698.44988639
      -20980.90566408
      6886.63161818
      11336.85327720
      783.36814234
      4451.42052815
      1851.49131133
      4517.61655310
      3226.89845612
      1194.87158816
      3495.51495909
      3177.99481951
      3095.77601964
      2833.19847584
      1831.77868530
      3173.14974751
      -2736.12309195
      -6683.39383543
      378.38315432
      -1703.24772362
      2829.85651707
      -600.89216008
      965.20173260
      1760.65737254
      499.20091681
      4609.45791047
      3633.71110508
      -68.11036312
      1261.39782988
      2422.40887743
      2545.24816056
      526.54662468
      -672.24872859
      4402.19979419
      1442.55355932
      2576.47454001
      2410.16085958
      1360.42438266
      1555.14892389
      5257.06137923
      5872.95329884
      2976.87402627
      916.25702830
      7145.09364505
      -548.38759749
      -687.64516637
      5847.51833066
      1848.16833062
      -1260.95361272
      3501.24434093
      1996.80898136
      569.14960789
      910.30866625
      -2641.05685170
      1012.70715381
      526.33278608
      1553.01712202
      -1019.84742063
      2010.88995292
      3440.72235705
      2005.57570117
      2162.94175782
      2078.98277978
      300.36499743
      764.74668084
      -1964.02809167
      627.39325734
      6547.36255338
      386.28619647
      2192.14023293
      1561.59741637
      5368.22195197
      7339.04335994
      4886.84030968
      5714.64216769
      6544.51829320
      6563.32688014
      8082.09644264
      4777.77434760
      2171.30781558
      -566.36274300
      3016.82817033
      4299.59277228
      -1318.87352510
      2772.45829111
      2882.98068175
      960.59116144
      2088.00096740
      1778.42621543
      283.69684462
      4530.63303014
      6430.12805511
      2800.10424619
      1402.60121910
      5307.41390423
      1075.36452228
      7.92472867
      6232.39802602
      1617.04951403
      3423.81722526
      76.15401479
      -4199.08451889
      -28.71045417
      524.36411200
      -488.49536839
      10915.83367379
      -2033.03378074
      -821.53290430
      2662.29216183
      4827.79545977
      -2663.59527980
      1150.24098851
      -481.46381709
      -709.78527436
      4065.07901804
      1945.55906417
      926.91008514
      499.09673099
      3964.75819286
      1443.16882461
      739.83713455
      1374.11384563
      434.56528506
      1495.77375346
      1433.06817198
      2398.25389934
      -1005.23054289
      2235.79794363
      -1819.41172076
      -1165.15177775
      -547.27951049
      613.07683311
      51.52853091
      10032.23696398
      3788.03562248
      2974.27873718
      13762.51948059
      -1701.03294133
      10448.37718768
      10789.66547809
      -3451.10682954
      112.74985834
      -1215.72066593
      2542.99474534
      136.45907905
      2214.77252703
      9831.14457463
      -658.50945150
      3768.68120873
      10390.08253763
      -1470.07113152
      1168.36329159
      2333.27580205
      -283.05814420
      9394.52653642
      1165.37364333
      1107.46007631
      4261.35072660
      1653.76148449
      6229.32562092
      3511.95176050
      797.79813817
      -2126.75810285
      -372.09390060
      819.72503319
      -6563.73583212
      -838.68762630
      -199.85413801
      2141.32334594
      -294.45350545
      1347.28580611
      -3787.47447755
      1244.97798202
      722.24319064
      -237.51745866
      -721.86917773
      -2614.53575484
      949.66177716
      2610.22908573
      2261.19656824
      1825.24489255
      3966.64828797
      496.43364306
      1929.51895421
      2785.02973314
      -563.40085174
      1147.13139916
      -1274.74039116
      2629.86850058
      -258.89841353
      799.29022059
      2885.57828345
      4689.34788508
      1849.19821621
      3142.62405442
      -1208.49536232
      -111.81921676
      -406.15975187
      395.50993358
      -21336.21804100
      5679.47969878
      14087.44795111
      10589.04134574
      1111.29540270
      915.32236865
      6941.46140793
      2968.24245480
      17002.09829416
      4364.76667225
      3878.64606205
      -501.44822711
      1094.95207706
      7016.59519748
      2469.37984823
      3074.93730741
      4458.58160670
      9305.33012938
      2971.19162217
      1480.04176386
      4666.89923981
      3261.60992061
      4765.32800459
      4426.51645206
      3856.55057617
      4512.93615369
      3820.26492982
      4555.79458941
      1257.36579924
      4736.06207886
      2733.28504462
      2825.77406169
      2372.16551656
      -1722.32964811
      383.47015632
      -1940.50964942
      825.68918575
      648.54164625
      635.22385851
      -335.21199800
      2160.63529013
      -4134.26157179
      643.78364736
      4778.86016012
      5466.10019765
      1303.07069830
      4896.67444797
      -499.98444831
      1552.48666324
      -1086.37822915
      3990.52196227
      99.81900970
      -695.70548364
      -364.65737034
      -2699.42535811
      -1841.50425840
      1727.81247594
      3571.30725745
      404.82729351
      3384.72142842
      3829.23274003
      1637.38807372
      -2257.24077912
      -2195.74260701
      -574.47642676
      -89.92841225
      12070.52057350
      2489.93352208
      6257.80230115
      -1135.74376452
      3487.40435506
      4002.98790580
      -239.22971574
      -6131.78995059
      2751.47690285
      4309.19049401
      2556.19356820
      802.18123842
      3385.71091340
      8141.40273589
      1105.43798930
      1607.32051835
      2132.55640750
      1112.20313775
      1344.43183485
      342.85932028
      4342.31336512
      927.33770503
      2739.51498696
      -74.36729950
      1634.00073704
      2496.49941769
      2311.31894834
      1176.08422013
      590.65809627
      2726.12680759
      173.33935213
      596.59379789
      1340.58498788
      909.70565417
      939.39123934
      2617.36466239
      1642.77148562
      -1125.45168472
      3609.44561990
      -8.49461774
      818.16375970
      4064.98829213
      2678.21563321
      1523.84355917
      1920.24405477
      264.78629091
      1045.03235064
      -317.23995559
      1469.23849109
      -254.45295304
      2073.60180684
      -128.20849382
      801.40807582
      -608.13635986
      955.25332191
      1458.89606255
      827.30107319
      -17.02002257
      -1032.10318359
      1104.63580941
      2202.53134317
      2916.27767230
      1118.10576952
      -195.90975454
      469.94334710
      -155.62466340
      -18378.22992136
      -4761.37408520
      5469.59466280
      4785.72369157
      4516.94714293
      2418.26186175
      4698.65410548
      3189.76454872
      6963.76397936
      -331.27017783
      2852.97301453
      4240.76616949
      -1412.95250545
      -2585.97746579
      -447.71680372
      83.60749950
      1710.78303630
      -1404.58111309
      4230.25898435
      242.65552660
      1126.28847843
      2877.79488203
      1869.06400300
      533.34670863
      -1984.32077507
      1886.20317036
      596.34065374
      1406.55555283
      3597.81698205
      1960.51858027
      1403.46920928
      2556.54579576
      4687.02047404
      2639.07108941
      274.83049936
      2479.97902436
      -993.76547824
      3758.18969998
      2756.57475020
      5600.10375413
      2674.11907365
      3207.38012591
      2073.37263368
      163.04167401
      -4.60729577
      -1375.42814073
      1437.59936409
      3427.66962929
      3088.74264819
      2988.29055083
      2112.05885496
      1059.78828645
      -1675.55749710
      4241.48382778
      -2938.72762029
      90.68874290
      434.40079660
      -2516.20678606
      -896.51417766
      -1982.61032953
      1386.58340313
      1350.18720904
      -485.60446783
      382.80392753
      555.52181704
      480.31321690
      2710.77744854
      4127.88100727
      11945.35059015
      861.16228467
      5099.20963663
      3709.45513975
      3747.48676961
      3378.06520067
      2505.98654316
      2012.84210738
      2813.53898888
      812.35526810
      3143.51444447
      4077.83257188
      3248.53558766
      -6533.42216288
      -4740.25519423
      4582.91544537
      -3023.14018222
      -2048.63256578
      -1864.90935106
      -508.40176587
      -511.53536942
      3176.33553986
      -934.11754969
      -9802.31676889
      3566.25731849
      766.85013953
      -6679.84279786
      -6657.02170691
      4731.83965611
      1324.69042014
      1625.41562894
      147.07719361
      1008.52462153
      3387.00180827
      1567.21765001
      800.37884420
      3226.96635392
      -318.77071678
      2187.74270210
      -112.77643062
      5933.53690977
      1912.99078136
      -151.17133926
      880.12606236
      -141.91612088
      733.54542991
      2675.41723160
      1190.95296849
      485.44773546
      2016.25808250
      -1226.79294474
      774.26526598
      -800.67267206
      1222.74762343
      -99.62602167
      378.68913561
      -85.84315654
      1110.65374739
      1055.78313899
      559.44799370
      841.86147508
      -366.54126697
      -575.05195117
      -191.08277758
      -2590.30204308
      5357.73754906
      -1226.33220567
      -1548.81817414
      2375.56011500
      4787.77910946
      10828.35953221
      3296.12075250
      2066.63941403
      1236.21811331
      3319.04137414
      4088.76248204
      2087.48220672
      653.80779427
      1012.49476044
      -11959.55130279
      630.07759331
      1220.75089083
      2897.02356351
      2477.99517535
      -2065.51061047
      -3.86057661
      5927.31127949
      3352.64263627
      2301.86880697
      364.64913796
      1163.15372581
      324.87496476
      4208.09103533
      5288.11605384
      974.46288197
      535.57967907
      3988.74470952
      2518.00097727
      -122.46869483
      -952.17451141
      3478.25758009
      -105.67814319
      1870.84362590
      -399.37262786
      3991.86948693
      4580.29021231
      138.69369398
      1809.24304982
      2966.88202196
      4139.01910960
      -798.06407561
      -2051.83310222
      3351.19579047
      2022.01998120
      -1364.83644974
      -1272.93464025
      1634.27318586
      3571.06795968
      1631.65281521
      394.62262123
      613.03654258
      -721.05514109
      757.51624582
      3844.67636041
      2741.62028171
      770.40396875
      -76.33256944
      -336.74505473
      -92.09285667
      -1969.18644438
      -7886.36499036
      1419.32630067
      -659.77150039
      9253.69237945
      10856.83033465
      2462.14429423
      7841.97613764
      -12738.76348659
      2426.64392132
      488.17613769
      3860.66582630
      1109.23873609
      -859.04836960
      3454.82203142
      1542.38638765
      2478.02006360
      1212.95461261
      -1960.80300828
      1922.50746067
      3432.52767999
      4895.29456882
      3023.89576469
      2610.46213472
      -2221.57845723
      4340.80142320
      2744.82266671
      1226.06117379
      -911.39789538
      -2061.90122231
      4823.71980481
      1801.21101214
      1600.97197142
      2701.40626867
      1550.12477669
      2261.63644367
      903.14968613
      -1392.63369748
      -520.92968714
      5634.16244176
      448.71527603
      2325.21478796
      1770.66846603
      -680.07688542
      7495.10003460
      1543.13954176
      1340.21904559
      -1556.91936768
      3219.79370165
      985.89783359
      -465.82457691
      2535.78942029
      3876.93994950
      -17.07277975
      3819.58660713
      1039.26337834
      1437.06911239
      2693.39294973
      836.88472294
      1477.34542861
      641.19023747
      783.04065156
      -2815.38232215
      -329.56813698
      1047.88652318
      948.47389003
      -867.44933720
      8764.00185890
      5967.93933833
      5284.22742961
      6186.72703562
      10345.41480378
      2940.31197954
      10763.25819292
      102.63428630
      -302.79372560
      3852.04335650
      3554.69666112
      3366.45665498
      1738.09442815
      1334.93191628
      3130.39372808
      2194.94250312
      2061.10001824
      -2151.69915781
      1354.17113444
      1436.21207820
      -482.49751827
      415.48229151
      799.09567661
      7348.96172547
      -93.59284854
      -1966.02265413
      1167.13340463
      3909.91046188
      3504.22938250
      68.40045373
      472.67971100
      5220.26958674
      2561.86778330
      1159.63013209
      -915.83862582
      1291.41203637
      -793.07884036
      -1658.46245525
      2496.60984708
      3610.77037744
      1524.73911263
      -277.53458669
      1581.08887736
      -104.99919495
      778.45862320
      443.21688933
      -1158.13193289
      1220.51603464
      -718.80733835
      345.63944455
      2408.20977597
      593.82959362
      -72.67711965
      1319.41167541
      156.89788596
      -398.91456793
      306.32765879
      484.43542089
      431.39229499
      -620.87718567
      1357.70621420
      116.67556671
      309.27923311
      -234.87490451
      -522.21530208
      -1114.93440889
      -28338.34729544
      4452.24859117
      4301.12415635
      6752.71085280
      1030.08590426
      5612.09981636
      1884.10687925
      882.27893483
      4264.15875812
      1714.94386692
      3029.09348114
      4147.31144619
      3584.02333195
      6145.17822850
      3234.46831518
      -1544.90207278
      4398.75736144
      4171.77806795
      604.51493305
      5046.85304330
      5809.03756282
      -321.47365015
      23.67269960
      4890.14896789
      -7364.35976252
      84.32252675
      8535.44441792
      -6.66951387
      10416.55295520
      2378.14994722
      13872.80500935
      486.49254979
      1557.83585316
      810.38128954
      -208.86271273
      3257.99288036
      3429.09851897
      2780.62951399
      728.51513749
      2369.02014590
      1826.31669910
      -634.37028916
      876.08802898
      4821.95555492
      -4345.77151842
      -1175.65321947
      -4755.97599133
      1162.52849485
      -434.47987865
      2149.51918444
      407.91764369
      796.39597420
      250.79551857
      -841.33367903
      1604.47791079
      -318.90282290
      68.79131351
      489.86504852
      494.26092718
      846.46333100
      -7.56698440
      316.27208145
      650.74108488
      831.95328073
      768.43331400
      -262.58784922
      2885.88462701
      4116.40922746
      7306.96439471
      7097.45782440
      6725.77743798
      1133.73202552
      1954.79813546
      2869.31546253
      3243.01506746
      18034.91147071
      1763.27060657
      2914.26587127
      6018.62508994
      2127.44427218
      3512.46715912
      4053.54005839
      3702.58556664
      5457.69130155
      6236.05523468
      7987.41453078
      3055.35046211
      1643.02830875
      5204.61413535
      6163.34219335
      -2555.89505599
      11802.51808774
      9808.32644647
      4406.41277918
      10750.01824373
      2947.26801209
      4100.37885939
      3749.92288900
      6821.88015846
      2404.44789116
      4118.14814260
      8769.64770243
      2302.39236421
      -1297.25302608
      10627.04677564
      3158.91601854
      1221.65988532
      -937.82552547
      -53.95892076
      3455.35824927
      -4753.04214101
      557.53223957
      5861.57143413
      -1822.51801879
      3263.41886776
      -133.72035697
      -1856.72844645
      -1323.47257761
      106.38370054
      585.36306977
      -253.83052407
      1128.48091217
      503.93031151
      -923.32044670
      -344.95466457
      379.93745974
      -24.95520301
      924.29470482
      395.96054610
      104.19765620
      -10.55867190
      563.14707059
      4426.49980262
      2499.12389521
      9715.20395812
      15066.64769905
      1257.97180368
      3389.76734003
      9301.62438905
      -6321.20182255
      10711.17633555
      3529.07621302
      2652.77752668
      2709.32784862
      1264.02530533
      1881.78972999
      7354.00441961
      2949.35427947
      9067.56141777
      850.34054226
      8198.45665207
      1667.33226735
      -196.12948374
      2907.17569647
      1835.46944931
      3422.32922272
      4134.72999852
      5548.53352927
      2301.30896646
      4360.28377289
      9178.11843094
      2110.63158381
      3917.68533188
      395.09201913
      6058.84698475
      3464.14891610
      4480.63038081
      2923.27131431
      4291.05974821
      2269.13208544
      3905.06621143
      -2018.76329142
      6794.10084942
      3407.57861089
      4440.55602180
      7568.26904654
      -1263.81604447
      -1071.46721600
      865.19884556
      1855.19117855
      6091.16148944
      -118.08075252
      -626.14543024
      3113.66276997
      -101.24564232
      3005.16819320
      602.37786416
      1176.20357908
      399.84728009
      895.32237637
      537.41732561
      1010.76546865
      718.76354488
      307.29018525
      -509.43379764
      -648.89506313
      426.55874584
      970.10870846
      -30962.88851667
      5076.08830199
      4339.56720333
      9401.49649643
      2276.73706347
      4795.52505296
      1346.33310273
      2872.76021306
      11245.96803288
      5650.91833266
      4644.54407989
      5008.11400090
      8503.15323563
      369.95805034
      3933.62236650
      3839.21746830
      9186.79006055
      6037.30682549
      2095.88051795
      3325.20313238
      2166.23505404
      956.66451870
      5639.04344583
      2359.93823304
      2656.26820117
      2561.10084259
      5264.46696342
      1250.68257991
      2942.48500886
      591.89127107
      4203.10022459
      9397.73445871
      3212.25034331
      5942.43812724
      2461.46282899
      5860.66874062
      7107.90748647
      5069.66879076
      24.82629185
      -3752.79715396
      12372.82166522
      -566.29903909
      -844.31894018
      -2877.52638400
      -85.73813093
      879.23548027
      8134.02378788
      -875.54812768
      -3833.91086884
      5201.70148379
      2167.05115738
      -2741.49123245
      588.54479423
      1403.21644217
      -333.15682188
      -547.87573781
      -1510.49455650
      -894.65258330
      518.52697439
      2428.36435287
      163.69208335
      336.25570543
      80.71197796
      818.45787062
      645.54726843
      -282.91619757
      -19317.15986296
      5305.42673214
      4323.11213766
      515.11520616
      1951.98532598
      8346.80393943
      3762.80271673
      2726.00576778
      3561.95237662
      805.35448837
      6385.81421491
      3405.51766982
      4080.95736957
      11272.77111451
      6304.44673807
      5247.24715379
      7295.76231704
      542.52395247
      3436.76504723
      3118.10957764
      4656.69927949
      3939.14960458
      1784.28847633
      4835.84832403
      2867.64830523
      -5152.27417023
      2144.15036362
      3288.74938950
      2735.85708417
      1219.54262974
      2869.70786146
      4666.63829037
      7921.97131871
      7318.58457695
      1896.24055959
      -2485.28853108
      -1090.57681983
      -1369.49878148
      7795.92222377
      2841.26803548
      2295.30951816
      -4478.21748594
      917.77866867
      676.78249376
      2287.38196809
      1778.35886067
      1092.41891061
      -369.87407294
      -176.58759214
      -1661.28679232
      -314.73901676
      95.07558071
      1874.71296980
      -2679.49743137
      2247.65171479
      -893.63070706
      2085.28276564
      824.19671911
      -253.90549808
      -2250.78234540
      -1434.78529310
      1612.47709175
      379.88282458
      -1753.01605973
      -1496.26362368
      -896.14692024
      3211.75720808
      8534.35235930
      3811.24497191
      2860.78203090
      3811.40836519
      4298.75377348
      4905.25002374
      4474.34807239
      5703.03222041
      6314.34419980
      5114.72224765
      11905.08972567
      8190.27997999
      8920.97762774
      -209.87595173
      6171.20642267
      5392.93762239
      4296.88624414
      4193.38860534
      1401.74382779
      1875.87030587
      1933.41171617
      1783.40195010
      1898.08904034
      44.34753566
      5049.40330247
      2679.51143192
      -1802.67737238
      4361.35554265
      3075.61492111
      -1381.03214977
      3146.42910894
      1418.11233960
      2933.81549449
      617.13648675
      1990.44392261
      2054.33460788
      -775.42449004
      -491.75077186
      -6619.02360548
      -54.82544460
      2429.27515919
      4376.42447352
      4966.29130470
      -318.64297376
      5380.63345297
      2516.51389291
      1590.05509903
      3399.51024479
      4909.91432112
      1128.40119186
      296.20787667
      -2546.65050824
      508.50095892
      -2610.80078276
      5143.08459758
      789.92458689
      4058.18329454
      496.27598957
      946.54558659
      560.82979157
      1255.60600244
      -87.73791718
      715.82283053
      825.13688752
      -152.86597441
      912.04408954
      -4360.86702654
      7671.42474042
      10310.03779335
      2553.06635765
      3244.82528821
      6484.15381945
      11510.76008076
      4631.11127955
      9201.37120462
      3814.70174433
      7244.10866330
      7008.28596500
      5779.60180526
      -1628.06424115
      1200.06984487
      4671.59118169
      2375.00457471
      3470.72226173
      1975.39916669
      -83.87657224
      1527.64662724
      3499.47698030
      4622.99961647
      7104.24992970
      2097.36646153
      238.87996386
      724.57804025
      3934.11429265
      4661.81799527
      8234.91553598
      3865.46602389
      1289.59539394
      959.99708611
      1738.70692428
      5743.42725122
      1485.12100838
      1255.29063554
      1285.60091548
      -24.04605009
      -5528.52943690
      2283.93569569
      796.41966917
      -489.28898296
      1379.58745019
      -52.05041993
      2093.55472881
      1316.05621716
      -5918.87003740
      226.26265697
      66.21833893
      4034.69883289
      77.31885954
      5933.65970838
      -970.90954728
      2479.27930208
      3949.79989531
      302.03031625
      2968.64750333
      878.63692049
      4426.69291810
      6117.20360016
      -730.19781595
      1054.60194934
      1648.99042800
      -1506.99082766
      -40161.08078057
      2890.72498851
      6725.22368374
      2480.66921934
      3096.79904578
      2776.56384096
      8750.98174140
      4799.94075700
      4285.24743787
      2823.21055181
      6825.00922857
      2594.58283167
      -949.35476647
      11475.48363371
      -2001.42326504
      8108.11997192
      13436.08326560
      3353.84488392
      533.85902015
      1956.97583848
      1183.21656116
      2809.52887623
      1289.54799801
      1991.04916537
      2116.16002344
      -3958.70067026
      -1745.93440152
      4894.22979318
      5780.67524812
      -1274.40923309
      -1694.18194140
      2788.96119757
      5394.75232675
      2346.51690725
      3223.34070105
      439.95857244
      -1210.74733465
      1965.29921338
      -94.14720284