<?xml version="1.0"?>
<VTKFile type= "UnstructuredGrid"  version= "0.1"  byte_order= "BigEndian">
<UnstructuredGrid>
<Piece NumberOfPoints="5123" NumberOfCells="5123">
<PointData Scalars="Pressure" Vectors="Velocity">
<DataArray type="Float32" Name="Pressures" format="ascii">
      -404.98542026
      -18785.60866763
      -22167.72630081
      -25493.28008765
      -24261.99582305
      -28560.32273856
      -29272.80775739
      6704.26650433
      2545.76889698
      -23569.16128140
      5959.57214858
      -22140.43487678
      4860.52708456
      1739.32088073
      -20993.64946475
      -679.10489202
      3255.95960883
      -27025.94562458
      -12140.24944357
      937.72933537
      2933.82144382
      -304.46120751
      -635.81818102
      1727.48332627
      -1281.91226536
      -491.96859790
      -666.95725130
      -30.01558116
      -1779.35194824
      685.07747505
      1455.63745875
      -309.51185513
      -2273.13095995
      3009.13369178
      2005.63042947
      1524.86749971
      -459.41021949
      -71.16231205
      929.06111226
      3071.22233098
      1161.53406000
      341.57803586
      -394.46873430
      -2873.87751496
      89.72435704
      -100.78952224
      138.75127165
      68.72103860
      170.28671943
      -323.75346318
      -80.98101233
      -158.59714979
      -592.23023399
      -762.65294330
      -365.92201311
      740.69829576
      -519.41454072
      70.01234441
      103.35739350
      37.51037576
      171.52280011
      -525.49355879
      826.14549166
      294.49695111
      66.67846715
      1440.82854180
      9234.82329752
      5389.50317142
      2795.03646014
      2088.68994317
      608.46726259
      893.67242275
      1563.28230892
      1958.11396453
      121.52139762
      2294.62085577
      -776.58619843
      760.22653814
      1290.82071200
      1926.21092423
      2152.59063249
      2310.01772887
      2575.70823957
      -112.66402890
      2754.46880489
      3245.31091216
      894.27917309
      -2015.67441878
      -1108.02379621
      -1425.87081223
      -1897.96907207
      -650.33208059
      2234.28242247
      3434.73376439
      1220.88297301
      2554.49470918
      2129.88736208
      -1266.57177699
      -1566.34917437
      -1908.40676647
      475.99480204
      -641.74527884
      1490.90423121
      733.18984018
      617.10500730
      -4364.07654244
      373.16978044
      1384.83361881
      -457.23314104
      353.94175033
      6248.20622460
      1230.84382055
      -758.80455081
      -409.24147657
      -1570.59782233
      -1602.22628177
      -303.79480760
      -2314.57553944
      1300.48137532
      186.94143529
      1603.94251613
      361.82475544
      -367.78207239
      -1048.72629530
      -176.14736009
      -68.53011549
      58.85345640
      -189.02521842
      -450.17916196
      -542.78464188
      -602.43001500
      2879.70592481
      -24148.52814249
      3854.01146121
      7398.01113557
      834.42366602
      3394.56547534
      6474.42272810
      -4844.10371336
      771.05284950
      756.36684299
      802.05328234
      3026.77110092
      -199.30859498
      1586.28715485
      2000.16798120
      2333.58129858
      3836.49358097
      7803.59539782
      3614.77116964
      2561.83156597
      2396.01449889
      2248.56001667
      921.83994853
      4374.16898169
      800.36090880
      1464.42708408
      -1412.04326179
      1895.77486954
      2379.23580890
      673.56818139
      -1728.67951590
      1541.43359954
      2030.46711816
      2177.31448901
      9645.72491341
      2533.48566533
      2388.88125513
      755.98699244
      3553.28668447
      2518.99243679
      3851.43257279
      4206.96018657
      -436.54152607
      3011.69240806
      1788.67968938
      591.41952259
      1382.82394697
      2247.44844334
      511.64410275
      -1151.26448267
      2310.60956996
      -353.08621345
      1191.83696007
      1219.43889256
      1050.63603914
      495.29316968
      80.34568232
      -28.81269871
      1266.65043862
      969.61950446
      1547.99525241
      -1615.70251071
      -666.52257684
      -66.12633698
      -1085.92850942
      224.70057420
      1198.98904499
      -18716.99888393
      3551.04987955
      4626.55406793
      3398.78392716
      2648.13955156
      2245.97115823
      3563.79744943
      7403.48057700
      510.85948301
      2793.11994605
      1578.26147190
      3331.10110377
      1119.86538867
      907.63015277
      9818.78339823
      3327.52967986
      -200.87012045
      1662.00803901
      915.05855081
      -2663.37594053
      1603.13806408
      4714.65145093
      2677.09109151
      6828.46978050
      2746.06598794
      2230.82147486
      -1449.65230705
      3608.57849449
      3779.73859190
      4400.99880234
      2477.78491122
      1918.05144795
      -2727.33005015
      5242.77863755
      3949.34600578
      441.51651790
      464.42880834
      2330.66807293
      -513.80518832
      2149.72542572
      665.47527616
      -1251.24869514
      102.79670869
      1249.77049388
      5034.50020870
      -2681.65357443
      1458.56174271
      513.81047958
      -244.96771848
      -1131.67466815
      1959.72176093
      -296.61159021
      -2047.05835367
      358.67925383
      929.14763629
      1518.58992509
      -793.26570858
      -240.93268217
      4598.40041321
      1908.84973011
      1112.76131338
      -772.92191719
      1466.04988819
      -3284.54861248
      1795.67098618
      -259.96049835
      -27399.67254656
      7120.73127817
      5556.78424451
      11189.41992873
      6970.11353426
      7928.94049499
      3442.53367969
      2348.67012348
      8420.94796903
      -2117.71355807
      2086.64151018
      -2063.55257610
      4068.53373429
      10667.57041324
      2343.44508375
      300.28078965
      4085.76568785
      -1482.55335164
      7878.31808694
      2001.59481036
      296.14209996
      1351.90516889
      6860.30294597
      1119.99129117
      839.06296354
      7032.08228907
      1660.30328731
      720.26407539
      311.21716753
      -741.37360888
      65.40756339
      2913.28095135
      4572.05762325
      -716.79981480
      6417.86934202
      -2492.40085195
      1117.03557699
      2387.67644628
      7115.44611059
      3053.30294763
      225.88915964
      4566.95093427
      -1287.16776456
      2037.85590930
      315.37998655
      704.63927034
      979.84860247
      1210.45812719
      1320.90893030
      -821.85220463
      -722.10178927
      311.47905668
      49.72855552
      332.27012459
      936.63507885
      346.25570047
      3072.14911043
      -1554.04484574
      -860.16392005
      1039.83628110
      847.67565868
      -893.80288674
      -526.45496462
      -1168.77956873
      1036.25771103
      220.73945148
      -20980.90566408
      -1706.59129614
      22496.33782995
      5455.15617189
      75.88578308
      5463.82230257
      5933.29645744
      10952.83702850
      3429.53466141
      8042.58500770
      1363.49941632
      978.03358887
      -399.77081407
      1710.32995201
      1645.15679610
      1858.76155129
      -1312.06291252
      5614.63270537
      -1920.26355532
      5967.26476701
      -687.45655380
      5347.92709867
      -1135.10006949
      -778.62249917
      2392.09767768
      2541.20803922
      530.42184629
      864.09919186
      2751.70166869
      7323.58006630
      1042.29279024
      3794.42208958
      5551.92905047
      1725.92931314
      -1027.00315818
      4879.51543271
      801.09061559
      2284.61001701
      7721.07230621
      5033.38130455
      261.16737610
      912.67662313
      1428.69608549
      834.34389393
      2184.52807787
      2200.47162409
      1539.58868941
      333.79043941
      1784.80083487
      689.25744486
      2158.65368010
      -482.90660445
      2302.56119223
      -754.02745928
      872.66936842
      -2669.34037280
      559.99921887
      -661.25561828
      -179.06961155
      -1090.61819628
      -2157.79687005
      501.53128329
      504.37614713
      -221.44210566
      588.30944140
      272.59376906
      -2986.39853214
      13152.60123352
      1627.00168099
      1806.73584369
      11788.12202818
      4101.79968000
      7603.53107617
      3241.57678697
      2844.61068946
      4795.20403621
      4799.93212270
      4365.97709526
      4180.17182454
      5796.38731984
      2378.27363775
      720.50398293
      -152.45000221
      3124.73608648
      11367.94684660
      5133.59325577
      2926.44527495
      -4154.93036516
      3668.46559882
      10830.63992578
      5548.07088897
      4041.80224241
      4996.55727064
      4966.34365169
      2328.78935440
      -1573.43523600
      3739.79424757
      -5751.76997618
      1044.93825284
      2531.48266006
      -5205.37799814
      7506.40501735
      3866.35520293
      -2666.97789053
      3838.77936194
      4383.01705907
      2329.10279604
      1347.02986487
      6675.88337474
      1319.51197493
      80.55264745
      1109.88461407
      -2534.49173763
      1859.02163781
      1986.85775737
      1615.60886708
      2457.43403996
      805.76302900
      4418.05999140
      -1259.74941535
      2575.80858028
      652.44667134
      -949.29002218
      2094.96917184
      1807.16667028
      -682.01104957
      -1386.17238486
      1015.10743512
      46.56682386
      37.27012043
      -1202.61628676
      -120.52806651
      12940.41959915
      2370.00332914
      3429.45507094
      16433.22124469
      9034.65480725
      14838.82443561
      6992.06599114
      2491.75958906
      8208.64943309
      4893.99015478
      3394.77860412
      2609.23436267
      1475.75806738
      1818.89671301
      2345.12656814
      3443.61871263
      7022.82635462
      2077.35993343
      2779.63958837
      5698.95586314
      1982.17060310
      8802.90179554
      2342.72044439
      2412.07868183
      4670.76129162
      805.64922897
      2782.39964968
      2930.23167366
      2375.83942846
      800.30610487
      2088.72788001
      -745.75345108
      2403.55188355
      2595.07321722
      365.04839057
      3865.88839936
      1533.69837945
      3088.95516498
      -2077.60683923
      2607.78250048
      6904.05448269
      6036.30157402
      3954.56753224
      -3611.37495356
      -37.34585958
      2426.75653226
      -1234.48628030
      -3648.70138802
      4006.23052805
      1758.50241551
      -292.04050541
      4557.25468412
      -1688.31822229
      314.61262530
      1463.89526622
      -88.54971333
      2067.45629345
      2779.22914844
      2338.27884957
      2062.45487201
      2629.53210222
      -520.42744197
      233.78533496
      698.10346072
      233.77919345
      2311.07075770
      -21336.21804100
      6647.96204821
      8596.88368720
      19911.93031456
      9275.10224607
      1118.88743055
      4041.83551156
      1813.06579130
      16642.19339917
      2385.82193461
      1396.88136180
      3940.82224438
      3558.52995851
      8287.39397651
      -135.99691577
      3012.27603369
      4400.82689222
      5657.73796020
      1579.79394524
      1148.91285848
      5097.74987340
      603.63169961
      4517.19881633
      1962.95767434
      -740.58281192
      8191.41663671
      564.19025927
      2417.05250971
      2800.76433441
      -246.62975851
      3602.01452857
      314.27842924
      773.42816314
      4554.13657424
      4317.68373219
      928.53020591
      5132.50066609
      3034.83055728
      230.93805954
      3870.06639524
      1844.15899658
      4374.86527184
      591.50845358
      6035.66463497
      2808.31989442
      -408.30215262
      -1963.67313546
      2192.90445351
      5091.58560937
      4533.90096592
      2909.74701922
      1866.76626420
      -642.76397998
      2572.67355412
      1111.79949575
      2910.69931417
      -245.60357606
      767.89080676
      167.32676085
      -935.14802521
      346.30242855
      -1109.10078878
      -2114.22531381
      -3019.47469804
      144.96671156
      884.25343831
      11542.16900628
      983.51498167
      8981.25372835
      8729.69220127
      233.79165090
      11270.17253193
      2554.04219978
      413.92050767
      3610.25174588
      -4153.53621789
      798.08483254
      5506.80604931
      5535.59924082
      13063.81636235
      6933.94375538
      7540.56988929
      4831.62196951
      5517.56129561
      2668.56120153
      3524.58266311
      3910.90705865
      2348.39894112
      -379.29619500
      -1140.85137323
      3172.03212375
      4311.94847776
      -1193.05978445
      2826.77491898
      1156.61515850
      -1201.94455909
      2402.25529195
      1109.56315282
      2643.28027847
      5598.66823843
      4218.33139672
      3226.74161271
      4873.94461548
      5587.74833933
      4854.77531253
      5694.35982848
      3944.94715903
      2069.39958132
      3342.43558934
      3531.66790665
      -3797.78222373
      309.43403437
      -1185.39310547
      -973.65550788
      3079.85602556
      3949.05752520
      1859.38709984
      -121.13736100
      1310.37646671
      1007.36425699
      571.47812103
      1078.65157121
      -2205.15915258
      1158.29638879
      -1376.48575907
      -116.12806601
      -2247.10428620
      -322.64382555
      3676.42947092
      499.80900542
      -863.26482379
      300.94980931
      -18378.22992136
      -11503.30284687
      12181.35410510
      3901.21408962
      2797.99632603
      2501.68051216
      5423.21223459
      207.73653327
      15310.48294205
      3387.44731813
      2984.47753953
      8085.55948411
      -60.73274336
      9432.53000257
      6888.81166706
      1307.87352794
      -1040.76477296
      428.83992661
      105.24023808
      4339.71364585
      763.73722692
      1619.82487571
      322.52682921
      912.09449883
      3288.82789971
      5269.63662734
      1342.61862046
      1702.77913514
      825.46606855
      7638.16619544
      4292.77840055
      -2509.83387648
      3809.74390101
      4017.89304891
      3212.58890101
      4044.68620162
      3139.00786918
      8092.46665819
      2436.67406227
      2547.59718104
      462.86993310
      3063.22325346
      3781.69522721
      212.41134340
      2264.04371983
      1545.71099528
      -1528.38156112
      999.75657747
      3663.72731758
      955.66768943
      720.94707661
      -711.50334401
      1516.68126945
      3203.13874601
      556.30031631
      -2093.39248833
      1504.22027229
      -1184.49225743
      -146.32007352
      857.53283112
      194.48756408
      3371.41252908
      796.07533993
      -1426.10671870
      781.71450268
      1388.51861206
      4950.51470715
      4715.52713139
      10315.35304685
      5601.13459656
      3208.55300252
      2567.97288022
      6095.34675731
      6504.29479531
      4358.28642824
      1479.96564352
      -226.10376123
      1800.49167360
      1956.95160381
      2108.75859761
      1889.52274089
      3203.12191360
      2277.08513762
      5860.84658563
      2724.09433033
      3058.15468176
      4911.66322979
      1727.05632771
      1171.17064536
      6410.75616444
      4226.47201834
      3916.62389850
      428.58845264
      1869.51181194
      1584.00806126
      1642.99459267
      1381.88740715
      537.13490116
      -2499.88443864
      4407.25284533
      359.23482613
      2403.72063887
      114.99843828
      -1317.40239024
      5229.78942300
      2882.04590095
      3659.10165980
      2045.53566780
      4989.04699902
      4581.86254000
      2167.14334214
      5702.13080977
      191.23156889
      2586.23325319
      4160.52388445
      -567.04312108
      136.83969036
      2455.38195508
      3416.29635662
      713.61122903
      131.86651920
      2777.73552937
      1547.71456157
      209.97620874
      -11.00100057
      2103.78599559
      3969.78589766
      2536.03764823
      -1803.77515728
      408.33013000
      -173.60744826
      1335.85806805
      9368.07937155
      3299.66244007
      5601.71396812
      3308.13763243
      5114.74767646
      4172.67884632
      6970.01837783
      -1073.50652989
      6872.04497234
      110.87966115
      2189.92868818
      5369.15330342
      3557.05279012
      1564.27677305
      7023.57535102
      3972.87072829
      1327.80257085
      6265.36234857
      -262.80974135
      -390.71204097
      -3619.48576456
      3867.53802767
      4358.03243588
      -3899.80311793
      -1265.51321145
      4168.83567576
      -4635.20861916
      1532.01417957
      719.79205832
      2522.57208716
      2225.11791437
      2728.32870430
      842.60368760
      1496.27766671
      683.86407439
      2729.82008872
      3984.04446083
      -128.48262649
      3469.82842335
      3089.69219943
      2539.31602024
      2406.68005435
      834.96732298
      -1033.73553108
      759.73584429
      3598.80776716
      2000.37545062
      -363.71187763
      1660.12582124
      3889.87007320
      2054.03531285
      1295.38036687
      3505.47787404
      -1114.87983949
      250.60354755
      3782.43307280
      363.27383990
      163.98681663
      -819.05255927
      1127.89631906
      2702.42134212
      -1745.98861544
      -822.26087393
      745.00579188
      1416.61976410
      1.39796438
      12105.63496997
      4805.31669479
      4397.56634092
      3270.21735543
      5762.45555686
      2942.65860536
      10916.54166023
      5573.52773072
      2250.95662379
      4619.33232238
      1766.86221680
      2137.98539426
      451.44367627
      691.28632209
      7764.38092138
      721.29339468
      -518.07719825
      -64.01599868
      3909.76563815
      5305.97552301
      -1560.77603849
      4407.29115303
      7470.44993417
      3359.44323609
      -4975.52581427
      133.98223133
      4726.13374388
      4149.77835766
      3913.41935850
      1672.88374102
      -1427.13900794
      2454.20167526
      2099.01899125
      -3043.33473258
      3470.04471031
      -2072.95350687
      2707.34845972
      5872.11243678
      952.21414817
      1836.80379899
      -59.70904131
      -473.58114806
      1766.01508412
      681.26933376
      4808.23600310
      -3034.89432315
      2093.81257213
      3643.57116982
      3661.84315945
      3599.26593357
      4031.20905055
      -999.41539112
      -59.19641520
      -690.85865002
      2832.16507705
      -342.38621450
      941.54252696
      91.59179329
      -248.46406335
      -668.97398460
      2572.03182010
      -1438.15877369
      28.10228691
      338.96430739
      539.20420183
      1249.90372565
      10707.20396151
      11462.34901284
      3951.14635855
      5283.97053525
      7214.65007544
      -1280.42636054
      2033.62170021
      1499.39894740
      7926.34899878
      -108.21843419
      3889.42822661
      4453.02440566
      2099.81188295
      -2005.29653559
      -227.00273136
      -885.24004469
      1487.34090894
      2953.58794955
      1292.72265067
      -50.82637891
      4182.41240128
      -337.72750361
      335.89032120
      3557.02766937
      969.50997668
      1693.75168507
      1653.27949346
      1767.63934453
      -3140.26187120
      6814.18931817
      6315.48613866
      -2468.08833659
      -1007.13448120
      137.60492706
      -1154.39775690
      2794.63956812
      3035.24151819
      -1550.93320519
      1333.90571301
      841.53630172
      1189.20635145
      -1038.30431426
      -732.24932313
      -1700.01950127
      -228.64174587
      -1619.83816534
      242.90707385
      2672.59186380
      2813.58614280
      -217.81800123
      2023.78764593
      792.67712227
      4126.97620321
      1609.65487398
      753.73012989
      -1381.64104496
      -620.46240853
      2111.04177610
      1634.66733031
      73.59196540
      677.37135664
      -1402.57909875
      263.63873098
      541.25509114
      475.74073711
      7321.50599976
      -28338.34729544
      10272.54249392
      4687.05479197
      2623.37368585
      748.33577816
      3640.90982985
      349.53581453
      -1866.98902190
      3930.37681400
      6186.71001851
      766.47662807
      5936.98087132
      2747.88067493
      2614.53808952
      2981.25031220
      5562.58368469
      3434.53046465
      2701.92734593
      3122.52093552
      1099.80992296
      6029.15760538
      425.74129125
      23.91505036
      3547.59190376
      9659.12398729
      3552.00363897
      9112.04680480
      -3717.47146348
      6828.00482650
      -3717.48585419
      5565.62235412
      -762.09533667
      1179.84109633
      -1944.89192398
      3751.35512086
      5756.54696223
      -2737.68812093
      -1827.78280893
      -1055.61228486
      227.52237968
      2085.93637762
      4595.01693746
      -540.55533715
      740.87339954
      2258.18804162
      628.46985416
      -226.99392180
      3008.87975560
      687.68029406
      1577.09749807
      1953.33201076
      617.33254692
      2668.82679328
      231.82908449
      1023.07338102
      22.83119365
      1225.29056805
      -263.23319861
      -561.82206483
      -172.87493286
      -687.00580932
      -1656.94833292
      -986.82595731
      -1572.02276055
      9.32764006
      -401.11477355
      2378.47531062
      -1358.00496404
      2497.33748298
      5377.34824879
      -3035.86986389
      2637.86191437
      4303.37401205
      841.26096668
      2404.76226637
      3908.25138873
      8.77365231
      10035.08135270
      3567.69671533
      2328.24373619
      5114.35999480
      6623.13874135
      974.80439483
      3039.59442926
      7670.97701435
      4433.38525534
      -397.88307905
      1696.68036734
      5103.82998110
      4155.65267826
      -7585.44444104
      4495.76297954
      9011.23167402
      5749.96530710
      592.28473912
      3471.40840232
      7799.57625972
      2447.89623925
      1677.32885807
      5160.83666060
      -161.70913014
      4478.47693723
      1887.49621534
      6285.45446679
      3067.13186962
      6382.13982367
      2114.56494573
      1900.29954855
      -818.96413583
      -353.61638028
      55.17951390
      -2650.98555359
      -3772.60209456
      -2454.84916228
      -503.32159387
      2153.55836411
      1794.42179511
      783.90430278
      1395.04605314
      -174.05363199
      -618.95462992
      516.07620365
      -303.21293207
      1419.65342587
      1624.42464271
      444.01441313
      1308.71620744
      1752.63322908
      1201.58594168
      964.10357134
      -132.89461772
      2097.35136491
      2923.54197043
      2125.36938880
      4274.61011693
      3958.85647377
      3182.27085024
      344.01440673
      2373.91677476
      5520.47950045
      4415.76044520
      3582.60307991
      4178.08356638
      5915.38499798
      6277.16450834
      918.33567362
      4099.12137915
      300.86628501
      -1880.34928143
      16679.58968274
      1130.05640192
      3590.50416224
      2484.32132670
      3463.38398762
      6022.03282708
      3408.47341452
      6460.03064316
      7941.94718162
      3232.78012222
      4058.11259301
      -3.37273232
      1148.27436912
      4288.58503057
      2893.08785726
      589.93803141
      2260.35939806
      1428.71194630
      3863.15825054
      3857.39296617
      -749.98116543
      2284.17959536
      4700.81048680
      2215.29004990
      764.68892365
      544.67250875
      2053.45722691
      5211.14309290
      104.16908761
      2001.51004397
      1241.12898001
      1772.30944741
      779.96580472
      -604.85328727
      3566.35185441
      269.82904015
      1638.13894696
      1046.71133606
      -586.61244907
      -368.77097916
      -320.78757434
      2034.07624499
      877.52478531
      768.80433946
      -1868.39368782
      -36.24527329
      840.00793160
      563.46323111
      93.38637999
      -30962.88851667
      3186.35376547
      3996.45093717
      816.68144374
      3164.93105246
      2075.10450359
      3164.23129979
      2709.77625682
      -2477.04627294
      5473.65651031
      579.76082865
      1339.13825255
      2127.13054732
      2382.26802074
      2010.34941517
      4250.17242885
      7048.53248962
      1849.73001112
      4194.54345840
      254.50784431
      1001.14930944
      -3543.31719388
      9780.82972671
      3732.46778085
      760.52935334
      5025.19018168
      4024.55307887
      4613.08357599
      12171.38353265
      2597.67797004
      3086.49328571
      4825.93631760
      6324.18947240
      7051.50747455
      2407.21252275
      5171.28831519
      1062.76947488
      2294.36066154
      -920.32040123
      6103.89924084
      2279.92864567
      -336.02302147
      -332.49763937
      1913.42426382
      4976.11009678
      -5935.78815225
      2146.63793133
      823.79826086
      2445.43120872
      4399.95210193
      553.62771966
      1550.00636429
      -1015.60807816
      1463.80103486
      -1217.52896131
      693.38678097
      1237.14134503
      744.30872537
      -24.05365168
      422.29483259
      808.89233905
      -1931.83266454
      -638.98013535
      2904.57277910
      -91.41672477
      1682.77150131
      -19317.15986296
      16991.55360024
      1143.73271196
      -1802.17140694
      -766.11627498
      4818.52589520
      8647.60311005
      1092.14209642
      2803.31111387
      3655.22894872
      -1537.16315610
      3936.46263184
      2289.82530396
      1770.77860357
      8198.66709731
      1827.73688820
      5414.79663788
      9698.58412185
      6986.81618047
      1243.56058096
      4317.36532471
      4898.34264131
      6750.97973845
      -3763.77591665
      -8346.40450474
      10122.91837528
      474.10412949
      4691.69909596
      666.33358622
      1013.24374184
      8624.91241565
      -733.51913956
      2789.47218772
      8133.02138084
      6165.58417612
      5255.03868794
      -7054.39656343
      -8457.30227367
      863.07926220
      164.74017871
      3135.57797480
      654.87783418
      1318.08646630
      1544.89428735
      -1938.26763803
      5025.36015987
      -71.12499145
      -123.09938192
      1501.63113083
      4800.92742476
      -364.22525560
      3857.94858718
      -392.71099625
      -568.90317565
      2164.56044759
      -1840.51244989
      2374.01936574
      379.95875408
      -882.26241918
      -2504.85534688
      -2234.82609814
      -333.81609381
      -79.49399225
      -841.88247289
      167.32224063
      278.72586735
      -9991.87392863
      10199.72079380
      2895.73971211
      2960.64007239
      5668.90875094
      3244.31355816
      2686.39997113
      3611.84604216
      9050.09544430
      7521.48881177
      4543.02327185
      1320.00188264
      13468.49146305
      8047.12518619
      306.97153898
      123.68332702
      14507.19524183
      1217.07324519
      5279.99355360
      2443.88379458
      5465.80295407
      6450.78178653
      3321.61084388
      5041.76768371
      1150.36089396
      6009.97218532
      -708.35971723
      889.88223183
      6783.22137664
      2479.35538942
      904.94702163
      5929.95794193
      -10364.07364737
      7535.41141931
      5505.99078062
      -248.85079948
      7523.81445610
      1087.90441875
      5601.21251293
      1207.12637799
      6950.20062508
      1661.73673448
      2451.61868027
      1691.37720853
      -636.79784631
      1854.80183043
      1174.45076006
      340.99623152
      -1121.58453544
      1468.74303720
      -1283.52046345
      1028.26831480
      -1797.98385591
      2508.59135684
      3901.50703761
      746.96795410
      1813.52982466
      1289.01190869
      507.43471535
      1206.45756143
      323.32069684
      270.27059448
      771.90007046
      887.18797962
      1119.68972667
      263.91033521
      2537.97003746
      1287.59625765
      1765.00919605
      7655.30906796
      2998.02893862
      5243.84467793
      3736.78932015
      6551.16119916
      2093.15674180
      2845.90823825
      4948.62423702
      3077.05799537
      -8690.94901194
      1778.11178580
      -6414.87851726
      3768.21550757
      825.65678327
      7033.48211757
      1936.36457992
      -855.84414293
      10188.58169569
      1401.28711024
      -373.44557742
      4830.73676911
      9757.66178980
      3004.31169834
      3964.46152482
      3529.86240089
      -2723.73950843
      4685.08111413
      8188.62652744
      5523.85195199
      66.66739008
      -2535.57826512
      5292.72610638
      3468.92114420
      -165.74783137
      4517.75516894
      -1783.92364209
      268.61830003
      3227.81096767
      -934.75083282
      2982.27084659
      -1927.32399653
      1572.94351988
      5432.13494745
      -2711.74972649
      2961.02910246
      1878.09554431
      2570.90931630
      2574.45349574
      1988.48494041
      937.32226204
      6156.26235255
      743.31436651
      5131.94377526
      596.66158325
      1343.59103950
      409.29637140
      -927.59768902
      209.58034723
      -80.94570480
      -1367.64258860
      -515.79556725
      607.01488648
      112.96152138
      -40161.08078057
      1996.74975196
      2854.40723960
      2061.70166112
      4842.17145376
      10615.20652030
      10294.21264992
      8325.84673136
      6637.36215011
      5492.24759226
      2609.04513923
      -1406.40001282
      1776.36931542
      3200.41601002
      13149.11564602
      -2285.54937522
      1077.66621217
      -344.43292078
      572.40023771
      -413.53078478
      3992.50330292
      -1335.85354699
      -941.93707699
      1218.57692625
      -3735.23254555
      -3249.00982900
      -1194.91813794
      6948.01903430
      -753.92796646
      -1097.54006688
      828.69710858
      1464.81617048
      71.35600102
      -720.52001353
      4179.21350674
      760.22363833
      2390.70671958