<?xml version="1.0"?>
<VTKFile type= "UnstructuredGrid"  version= "0.1"  byte_order= "BigEndian">
<UnstructuredGrid>
<Piece NumberOfPoints="5123" NumberOfCells="5123">
<PointData Scalars="Pressure" Vectors="Velocity">
<DataArray type="Float32" Name="Pressures" format="ascii">
      -17.24311650
      -17120.00661329
      -23285.68557832
      -25493.28008765
      -24261.99582305
      -28560.32273856
      -29272.80775739
      413.58128383
      -49.78201064
      -23569.16128140
      605.30141599
      -22140.43487678
      778.49163466
      277.83881805
      -20993.64946475
      617.17499607
      -71.96101755
      -27025.94562458
      328.79075496
      -22.17260342
      -94.64714241
      104.06804789
      147.93299353
      667.72143388
      317.87127637
      265.88570966
      288.27375092
      -285.00249846
      -886.93294596
      -1251.84806952
      119.49447074
      -477.46045446
      301.29799415
      14.57962147
      -2048.24084336
      2105.90787518
      854.55955042
      -936.30124701
      -161.96193889
      290.03074961
      415.19750230
      1237.11757466
      401.42780484
      -163.29374618
      -48.16902864
      -101.34500314
      340.73862552
      -377.17333826
      -145.52096340
      163.69970832
      -533.11770988
      52.88261042
      -368.95631500
      74.20801403
      236.61537919
      -2946.36651180
      -1177.22291750
      477.39365148
      7567.07409698
      -24618.23626648
      -1259.60000889
      6629.38309740
      3046.44480793
      -5250.65044214
      386.04462155
      -1481.98828796
      3720.53851684
      5389.50317142
      329.43313838
      965.20467671
      603.31390814
      867.62033254
      1329.68992888
      1491.36216766
      606.04095649
      3110.48369642
      284.11730285
      1207.54884395
      304.58313378
      638.99074775
      323.40131725
      248.98588065
      1379.05352168
      41.59966710
      644.22224635
      143.73334109
      3799.63997451
      2693.67251916
      -67.07239849
      -832.06939640
      -341.28288276
      -154.19303277
      -198.93874565
      -1939.34631674
      2288.95940700
      2701.33207561
      1617.38805018
      -148.13200105
      -132.71839080
      1101.19876223
      218.99341380
      4369.09354691
      -1549.84715025
      -353.10125965
      64.72725370
      -1961.13549578
      579.45901807
      -932.74320007
      -3517.29304956
      -418.81329094
      334.26137304
      -5.08798148
      48.95440345
      -17.18046398
      -20.77282058
      -108.56404066
      63.44042404
      -631.89622603
      -99.70501281
      -341.21268974
      275.39707561
      -1021.03957077
      -555.99359916
      9197.42796085
      75.69673240
      -3308.44434529
      -781.95303302
      -1705.70889781
      1153.97911136
      -3083.02841230
      7421.78103097
      4209.86853780
      -24148.52814249
      644.47116574
      850.31468774
      988.70704738
      1184.90484632
      4294.46295989
      3448.51557474
      -198.50531503
      1034.57492237
      1859.87550501
      1567.74300901
      2030.88599566
      -3100.64270234
      -97.56529588
      974.85170681
      296.48237611
      -3831.64965357
      626.63059083
      704.50926689
      -2176.84079902
      1798.65574174
      1304.04311280
      789.45126246
      1318.47129358
      -529.91169339
      690.03279342
      200.04861742
      136.81851791
      1545.17834994
      232.02448911
      146.34395086
      754.96836626
      2410.11357041
      -624.09801323
      -228.50219939
      265.36540646
      4392.41361460
      -1499.57087391
      -787.31204073
      -675.83208014
      -157.28458520
      941.84590274
      -137.27740733
      -165.40738650
      111.75138607
      -756.95245057
      -283.58278908
      -418.72106062
      -446.14909659
      -1215.49588934
      -613.30686954
      386.68714356
      1881.78987873
      2502.79992970
      1014.61660496
      659.10923450
      2644.15722868
      1075.97749781
      1897.94325037
      -277.34025903
      9186.75563585
      1907.31914307
      10848.01159872
      3479.71339525
      498.10544494
      7216.91086749
      -18716.99888393
      1003.86710548
      1069.84128388
      1690.11039238
      5027.28162909
      -444.35352750
      6678.80260930
      3902.02836620
      2200.81478278
      1427.91484555
      2601.79924398
      4500.64181123
      669.00516525
      1470.76846649
      3455.04609124
      2201.54444295
      1141.54419583
      44.75728745
      978.33901237
      669.32729186
      2720.14672169
      484.91147158
      2301.11926363
      607.69820274
      985.08732541
      2973.05563631
      -189.69556472
      971.59726796
      759.26757787
      1785.53174474
      798.13644628
      1376.56728563
      1692.94227616
      314.66694811
      2397.66885260
      519.53128647
      562.13003833
      521.82538635
      85.17703165
      927.30482056
      557.99218845
      -776.20917973
      884.22723962
      -1097.47124436
      1914.63578742
      -1010.72065397
      722.67949979
      64.32328958
      600.61618280
      1976.97550109
      425.89270272
      2328.60890600
      1516.97207792
      -2261.22162258
      5717.89477120
      413.43861922
      -867.83981213
      7297.42606760
      -9826.83329380
      16229.77721666
      -3909.47771822
      -4053.23130629
      -1258.41690849
      7671.90667252
      3999.24277695
      -5568.01830659
      -27399.67254656
      3070.87633397
      3642.77872377
      3824.90536729
      1731.40781025
      2410.03113673
      846.77958805
      1045.74062167
      2255.30267566
      2729.68617098
      1517.91343906
      2222.10822455
      1808.39379016
      1640.42748031
      -397.23704802
      1145.59228681
      -3552.40036522
      -96.54952506
      1631.60697944
      -1060.86946167
      660.29651918
      -672.37393991
      707.14423333
      -1443.81919674
      574.29155627
      699.96010951
      399.09095839
      -279.74892580
      -515.56881009
      -48.05286602
      213.54927693
      941.29920030
      1429.77858583
      3267.24134476
      -1237.58789091
      -59.39533143
      1122.85918977
      1886.24079500
      2973.34966159
      1227.25833375
      1961.26980764
      4171.43865901
      1619.68538093
      2457.32621765
      -1566.19935269
      1010.40857478
      -1198.88957570
      380.78741130
      546.35543056
      -448.97649242
      -1288.01760549
      -2121.58964912
      4949.97576199
      3709.26407345
      2974.14516281
      480.87973067
      4663.15800307
      -714.97445886
      9524.88145177
      -2581.78621427
      -726.35972396
      2.81946273
      -6407.59773216
      3764.59267461
      3680.39247204
      3804.94900464
      -20980.90566408
      4558.46561812
      3240.90499342
      1698.72449876
      4453.14913285
      1343.87668352
      1259.37750702
      1416.04585916
      2524.44760954
      2907.86492421
      953.18133911
      794.35683698
      2584.05384588
      2314.49147071
      4356.07249140
      2830.30883827
      3824.15076717
      2131.76087307
      4232.20576829
      3660.38021679
      1133.28221764
      960.75217490
      644.92279748
      -2412.04406785
      2531.13820718
      4048.96375873
      -45.52798059
      476.97770459
      1128.83170686
      831.93117050
      222.28283496
      -293.53303264
      965.09906124
      -2082.81274590
      182.74189046
      2083.41274210
      -322.70501828
      930.40496069
      -353.52132380
      833.78417545
      -580.16839225
      -1916.37921671
      1346.44223834
      472.10175151
      2626.63308195
      3349.18077890
      -2051.36831902
      -2451.63249741
      -283.55585010
      3597.50542289
      3257.79349318
      1959.91996753
      -4852.57349463
      8519.55792694
      5616.56063193
      9245.61857353
      21322.33968208
      11610.34037621
      3602.57405443
      16635.06664630
      3714.78735558
      418.61158665
      1257.10763888
      4319.07420266
      3406.69799120
      7389.58050092
      3053.98825490
      6655.34042062
      580.70907253
      7231.67733851
      5462.34687354
      983.49010300
      6483.11004546
      1940.85318318
      3233.47396527
      4775.02459535
      -6517.00910725
      1045.34173839
      1105.54701180
      949.96547926
      1118.16347032
      1118.54827371
      2451.65006484
      2067.01098807
      2040.99444709
      -1285.30493040
      -105.05890667
      1635.53020593
      3527.80684997
      4387.38212222
      6561.21355621
      3045.03072587
      -46.09967273
      8292.96330419
      4279.16822340
      412.85931960
      4083.40888640
      3980.50837918
      2744.93605708
      722.70098492
      406.69414422
      -455.02515899
      4753.53498312
      897.61689569
      2810.80857616
      980.01114498
      4651.14245790
      1414.18127612
      2075.28958630
      537.91873786
      2223.02837656
      3438.94724505
      2701.55514138
      -1386.66860410
      -475.86383271
      930.67798542
      -533.29994127
      2437.44413625
      -2080.40466469
      1185.51473891
      826.14870975
      6156.77567229
      4971.47680252
      8036.62079085
      -679.53527193
      8086.36088719
      3233.76295550
      -665.85146849
      5690.07260635
      -2760.66641044
      928.13061588
      5102.96247708
      2659.60079792
      1579.77281426
      10671.86035745
      3734.63176804
      2993.21778644
      -287.17164321
      3185.50663504
      775.49322420
      1723.31138899
      1492.48446796
      4269.53920032
      3046.03180386
      1136.95250676
      1593.32813341
      1269.51162409
      1526.72929221
      3137.78284041
      1266.64282122
      -253.08279811
      1447.74956741
      4944.41973685
      877.08120992
      534.85024482
      380.07006409
      4763.93736821
      4646.44964106
      2662.54305202
      1374.92825089
      3704.25984797
      5224.15790381
      -457.85029116
      236.90340128
      1890.85294742
      -2272.90227764
      5589.28670418
      759.53159528
      -758.41904217
      30.62246375
      3015.58179692
      1043.23487491
      10235.56199552
      -1046.47635515
      3730.87743099
      1481.94012342
      2082.21841400
      2432.84557286
      586.09224429
      1770.20278500
      3776.06566480
      9914.70289248
      9912.66393974
      -1049.99023353
      1159.00530651
      4123.36378901
      5877.23301752
      9007.76173515
      12822.98373637
      7184.98088562
      3196.06256889
      28.38068702
      2510.31496375
      3280.70163648
      479.43923130
      1373.33894696
      1620.32609150
      7070.66475882
      -21336.21804100
      11571.17944731
      9739.88593220
      -6068.98781310
      315.52777484
      998.58539196
      4428.26531024
      1409.00136453
      3064.48354087
      3934.95423018
      879.71040357
      3629.55150323
      2099.04444034
      511.61827563
      9433.20793212
      1510.85366028
      2997.83887172
      4112.08515113
      1789.26475515
      6356.23863861
      3334.27533349
      1728.49461763
      11369.52322653
      4585.21058286
      4219.31478766
      14226.15076952
      4438.62724798
      4723.35425605
      2955.33608150
      3150.45819803
      11180.20863046
      3695.35579886
      872.22287809
      8954.22984235
      7749.30528953
      36.28610118
      2678.00584647
      2701.33260884
      3377.44023525
      2981.03123979
      -712.68486254
      4592.39406850
      -2324.65733150
      2800.20648988
      6141.21443687
      1192.28839142
      -1558.91071420
      12182.36370579
      1827.48353647
      2971.47412690
      780.91919329
      4540.07631140
      5032.78055751
      16598.98367907
      -1070.78001734
      1282.76272213
      10130.78896731
      1054.38570308
      2232.00092126
      2777.14715486
      12193.91068730
      6420.32233002
      1671.08903723
      3743.28463793
      -4212.96381608
      -3419.04852204
      3223.46782296
      -16161.55176151
      -3408.74149280
      -3078.12588940
      3104.05478657
      3926.55771608
      -1120.31287685
      1701.67150889
      4562.25678771
      2754.87200930
      2183.82098225
      8543.87496405
      6704.88722600
      6085.74278791
      1479.16471868
      3505.64025235
      4993.96841261
      8697.40346869
      5666.41224076
      12316.15634636
      4829.08881931
      5041.49663166
      -1884.70683676
      2945.80876549
      3438.88612590
      1510.13341118
      2861.29202380
      3761.72397959
      3482.71027711
      3793.83905510
      -2502.92359751
      2237.44041062
      6256.06432474
      4677.98611341
      9184.54294737
      3525.62992696
      4203.54488625
      3002.64118755
      5326.52604560
      4509.27048917
      256.85674692
      5344.95657711
      4618.33382224
      721.40822490
      5723.06737510
      1604.90196704
      -43.90917674
      2781.35931542
      1212.40103333
      2331.80240418
      817.65530053
      5136.23701593
      16085.89536772
      9916.84057632
      3617.44237007
      7878.95385548
      2035.02378801
      7654.78670723
      -1042.05686377
      1012.44573599
      3554.81452390
      3960.85566957
      -1424.35595683
      990.54830728
      -429.84834101
      2934.06190240
      -18378.22992136
      -5122.03323266
      2365.13987325
      3291.50886756
      3200.43653315
      2074.16935333
      9183.10050207
      3665.91626514
      14038.00017858
      2761.85842500
      4848.34917812
      6726.66685216
      9317.00930156
      22035.49767728
      9868.57907469
      4366.29433816
      2936.59801736
      2934.10924401
      4144.70516597
      1987.45329895
      2973.99000925
      2085.70609648
      6158.44520577
      4172.96585212
      2802.33703661
      1711.32355178
      -878.54154808
      4293.06015955
      -680.59095172
      2205.24260551
      2524.33509777
      5393.59361319
      4114.33386835
      1436.25233249
      -1580.63847344
      4118.48783984
      2762.61758534
      1293.61199803
      5171.70254207
      4244.03730068
      2876.39633363
      2283.60434512
      2373.49331390
      9235.42452287
      6829.61590002
      -1269.10304515
      6782.30498769
      3863.12606029
      -805.88769009
      -499.99293816
      8441.76940456
      5234.30360820
      -4338.63780095
      10073.31908094
      4803.93453434
      9136.24352475
      316.47639078
      2018.43975884
      4232.82149678
      913.60872394
      6465.41727659
      5728.92953781
      -150.47019257
      -442.54119610
      336.44512577
      3683.94214764
      -15857.23209146
      2676.09153474
      7657.25836984
      6453.23611053
      4611.66760723
      19945.50467470
      7088.30644349
      8129.14413180
      -1009.10832705
      15644.82566208
      21495.61665139
      8099.74645236
      17732.13492914
      11095.67374159
      4996.40374015
      4490.52564298
      5427.50210622
      6699.72047525
      2339.35108013
      1322.03839452
      1067.04795791
      2141.70290173
      1840.65172085
      3312.67654956
      5708.00018700
      4590.14432967
      7879.59935235
      4150.96779111
      1141.84396265
      3556.07061280
      -3593.96541044
      2299.57281922
      6149.28400187
      6422.29935418
      6194.97673014
      4588.90558388
      3244.44948434
      10219.23083705
      2461.07632364
      3414.93917591
      1986.03193350
      3610.24351717
      8033.92921276
      11884.14512244
      5734.22084364
      11066.44032009
      -6834.39251021
      1503.79639877
      4351.18680090
      10425.16103264
      -336.44400819
      2238.65311225
      6458.83840968
      1522.83006711
      -1653.69929809
      5114.56710358
      2787.74583372
      4884.45340733
      3966.99614871
      2119.73895840
      -11594.42157855
      339.76621200
      289.07732940
      6742.64893090
      12978.93907702
      7739.37977039
      -1359.30025706
      3803.72703008
      3115.86043040
      3338.14955385
      3058.70753155
      5752.33628091
      11077.42186565
      4147.43764701
      4507.11229409
      13935.06826712
      2741.57587865
      2954.93687865
      4102.02227687
      -1591.95631888
      3774.87741870
      2256.01701880
      4148.32773598
      2353.01665401
      1900.75296140
      2654.46116073
      3219.90155237
      3773.36949613
      2490.52497772
      1411.90039810
      4470.11603320
      3470.10244829
      963.75045039
      1736.69614974
      7791.89802010
      5191.00428258
      338.61763576
      1208.20201764
      1527.98880419
      6071.73994963
      5117.28816128
      4427.02386978
      1331.60671274
      475.66546574
      2602.03836729
      4608.39542598
      320.31474673
      1056.30385556
      3332.45863006
      2638.56550880
      3491.69309753
      3553.12275032
      1956.81475005
      -2193.11637720
      4170.07825385
      4016.57738206
      2465.77560652
      -4109.68020362
      2261.52733736
      976.27877518
      4921.90225902
      822.00739226
      2492.58770019
      4499.15947248
      -1874.93145525
      -399.26472045
      585.04251788
      5858.46095644
      6903.53579041
      -7532.32992032
      5269.47532865
      4147.23772262
      -7886.36499036
      2232.02134680
      2473.59741230
      6961.58650221
      3776.02592264
      6768.94177218
      6786.79524981
      9669.31649255
      14305.63332213
      4361.01811335
      5825.20873627
      2958.56277271
      3049.43730024
      6281.64985027
      2938.58516090
      5468.87397445
      651.25051744
      3417.49332664
      2715.12063208
      1378.29164613
      3458.71823457
      1997.07562193
      546.62132913
      4312.93369052
      -48.69606028
      941.14417610
      -879.39957782
      2563.85031150
      303.00681371
      9495.70060486
      4615.23582487
      2923.95764103
      1516.85932450
      5602.30584703
      -858.11489631
      4388.57327447
      4070.38811062
      1774.19658868
      3692.37550259
      1196.16553217
      5316.82018086
      3645.34862289
      1998.71074388
      2585.40023476
      1483.46993518
      -179.25837157
      563.13504045
      4656.84231041
      2495.82772693
      -437.38784431
      -651.29790229
      1660.09288255
      2754.56948000
      -3307.96884946
      1676.54636186
      5261.07244689
      3318.40575926
      2774.92412090
      1056.41029844
      2758.64015148
      1163.06503679
      440.72365636
      -4113.04090706
      8736.82206639
      7577.90180818
      727.94592003
      3278.70990289
      8394.36470405
      19808.49597455
      12397.53571256
      9855.59963429
      4441.41966463
      3087.11755277
      6162.95349063
      6795.87056499
      5481.07179560
      5841.48348969
      7284.88168827
      7461.11423331
      2758.91898047
      2041.33145255
      1195.08793593
      397.32429690
      7105.37678366
      2500.13566509
      4171.93346775
      1147.28095090
      1022.80747722
      482.09231653
      8318.56821660
      466.62430662
      5622.46629009
      2431.13405391
      2770.84474655
      6108.50833791
      2530.60334208
      5254.73195349
      849.05498997
      2780.42612088
      2639.64638764
      2270.31271437
      629.71329989
      3190.99404387
      2328.15423261
      3009.56148026
      2545.28097058
      -454.16811568
      960.62161240
      5283.35771531
      968.58693781
      -246.93807048
      -5513.80729556
      2493.83867524
      2235.14350921
      2980.15889417
      -3281.01301839
      -355.00414584
      531.00291723
      2458.98857095
      182.16322227
      2665.62953011
      1122.10885630
      2613.48677959
      -3404.97069132
      13454.79864387
      -412.02673192
      -4308.16340507
      118.04764896
      -6889.65560080
      -3631.00507943
      -1840.84014237
      -5169.50612021
      -28338.34729544
      14376.10526175
      5023.33127689
      8116.54696412
      9668.12578528
      3579.62660309
      12690.93800434
      7950.22276002
      5105.23367052
      4912.08164862
      7284.71264615
      5270.07512140
      7914.29385667
      1502.66777393
      1686.10981740
      1605.47123982
      387.59569725
      4872.03017880
      2159.60003259
      6111.89712517
      2459.74838551
      2647.79881687
      1083.58965908
      3167.01525209
      2491.42566854
      2181.87581462
      2141.50250563
      4013.83332302
      1728.35758589
      1366.23436483
      1303.34801182
      4461.74918427
      1872.06166487
      1504.63672765
      -1804.00287921
      1610.35155936
      -647.94068252
      2134.82963208
      510.86099213
      1494.35566103
      1400.15668198
      2242.52168398
      3493.09155046
      2452.08161453
      1158.10684540
      2261.98790638
      4167.33592440
      316.55840882
      1088.09232800
      -31.94959671
      3536.45417428
      2120.66177187
      -288.47725134
      126.19857773
      4951.82610394
      6083.53197460
      312.46486365
      -5491.68565989
      1244.16731772
      4804.10711476
      14816.48505842
      2186.04366276
      3124.08463683
      -1754.87703393
      784.97395094
      240.33943381
      6334.07483893
      10998.68038816
      9745.94113616
      3647.08753128
      2868.04590875
      8410.23077327
      11985.84751381
      11823.37453062
      6984.48661194
      1305.59170157
      4522.02733723
      1179.09576804
      3313.31626858
      2575.19073843
      1906.84256150
      1993.10800990
      1608.98855136
      2977.49576441
      1757.58051012
      1433.21547495
      470.46037922
      1388.51107792
      2725.44427262
      2521.15798270
      5050.74553810
      1953.00428771
      5611.67889912
      -399.59069868
      1440.10447161
      1678.07428030
      -166.23678433
      -3402.75569980
      3604.89387347
      501.59160272
      -1832.47143764
      885.42985206
      593.14780815
      695.14258056
      736.32232502
      920.19753836
      6526.22280121
      2185.32285479
      -1946.06181304
      2304.44682381
      -2088.28705162
      3797.01393140
      -1492.27932775
      1180.34678092
      2286.03702885
      2931.90207998
      2050.22729283
      559.63805408
      2010.44527568
      -6682.39226707
      4164.91817331
      417.16297586
      -1258.04158762
      -2564.02391583
      -4024.51155727
      -664.40045727
      37.46006740
      3650.91482993
      39.81980716
      3374.67312248
      4422.84524183
      -3591.49617340
      1282.83303137
      8096.64421854
      10292.99960765
      13353.82505884
      8522.30358815
      12965.51874268
      5082.47056672
      2851.53004077
      2347.85653231
      -650.30548678
      1675.31228689
      1674.42868091
      3567.80593348
      1106.27435625
      2977.56779371
      1365.41161743
      958.04778403
      1296.22004730
      793.42178315
      1820.36298753
      799.99135914
      3263.64928586
      1826.91117544
      4436.71846956
      4344.24179266
      4891.32856151
      775.90753939
      2307.45822489
      1743.84783079
      1077.59170933
      3058.13920798
      1015.60392399
      1364.94083992
      452.94973889
      -392.71658920
      -6171.73362285
      553.76982316
      -628.08218268
      -831.97161700
      95.79702561
      339.23385949
      33.61810803
      -125.22393219
      -620.35992384
      -866.97575542
      -15.07371405
      -686.21979399
      2816.87630254
      2549.99261897
      1939.84026328
      2775.84420312
      2754.13234729
      -1631.48014377
      2962.90096590
      -494.77819476
      2926.86105040
      2212.39619710
      3336.44811616
      -3000.70725751
      345.03578579
      3332.24048265
      12867.03138359
      3902.43797271
      1222.22827120
      11959.28117075
      87.12788512
      -30962.88851667
      -5678.75686574
      8140.93424245
      8453.65982616
      1820.96911756
      3197.39842922
      4927.01360228
      -6501.39542676
      1736.02455753
      1209.78294208
      1766.16931838
      -1465.00437439
      5157.27403400
      3599.34900018
      3999.72128961
      5228.68657816
      4205.91860772
      2123.12993960
      1539.53184265
      4616.43814123
      1957.91999577
      1476.81094935
      3523.14721162
      1594.39979037
      1641.19960513
      3329.92116019
      4753.42591069
      3091.71328097
      5019.23644197
      1773.88230993
      2786.45880063
      1887.58484122
      1782.64409284
      1522.48005923
      3125.30050366
      1395.23382106
      407.07230772
      -624.53146084
      -460.59325368
      586.56403092
      822.06447009
      14.09346344
      1097.68086833
      4435.13343196
      610.99499731
      2011.09703953
      3119.10580436
      -1081.44687178
      -2897.59618432
      -469.90009924
      381.86321721
      2955.36542734
      2652.99557531
      2492.39455525
      3331.57625777
      2287.35868530
      3585.70971910
      7359.06300506
      -2546.45897432
      1800.72063282
      18474.79352725
      7171.89899416
      -7038.82348417
      -2142.01425582
      604.73452629
      3861.13542510
      -19317.15986296
      3439.32525334
      7381.61323385
      4870.90784232
      4442.93018188
      6020.19226866
      -44.98854638
      16993.62375048
      4183.78390446
      2517.01924730
      4411.30920926
      7196.28882130
      -3976.73630288
      7076.63749352
      5286.01669048
      4147.28731345
      4588.32930146
      4253.60990264
      2218.09437631
      2251.24623466
      1378.93399339
      3154.47770401
      2568.88232089
      2138.84186256
      2857.88744030
      743.91987868
      1139.05102329
      7714.89531892
      2651.65956078
      4329.68224349
      4708.20653716
      5136.85118370
      6486.53654252
      7207.00957783
      6203.98019860
      799.18261042
      1007.48401773
      -241.54439483
      3986.81032163
      1318.77069635
      600.04175784
      1910.15281854
      401.67829378
      2294.72763376
      -455.37681121
      1833.42505695
      2053.42672617
      452.68806607
      -932.85638092
      -1702.72916325
      2317.93870307
      852.29452093
      1596.95385408
      -4384.80747171
      1510.95472603
      -375.49879823
      2504.53241503
      15481.20791817
      -7160.50286450
      1248.46689715
      -327.46256333
      7468.47922956
      9674.72686359
      7131.35129162
      -9795.67543668
      3140.00589581
      3211.75720808
      3420.10035646
      6801.13582554
      3846.68901878
      25.64884361
      -3409.18880220
      4171.71782908
      -2192.29391617
      3574.87059509
      5778.30544951
      4267.74065734
      5383.83420715
      4309.65583001
      5306.00931793
      1600.30253018
      2498.98419277
      4922.82908262
      1467.89755963
      1759.45713446
      2143.49591037
      -1786.46496756
      3000.05608273
      3007.47260662
      2113.51936779
      631.51116735
      3447.11205218
      5198.54045274
      5600.22337746
      5102.02823470
      -187.82181404
      4664.54606863
      1069.83755948
      2292.72936691
      3914.67153609
      -178.91088445
      2983.17791143
      -827.23253779
      1009.49650381
      1310.05921023
      -59.07510337
      21.22364816
      -358.00758117
      1028.47391214
      730.79546220
      -898.19188221
      3047.19425233
      -1785.93069547
      674.48767407
      877.21304960
      2443.07001141
      5693.55002096
      2428.64335471
      1713.24832636
      -606.97677664
      -1618.54840234
      3015.99307469
      7495.30127238
      -3943.54247812
      -14043.60367510
      2112.95048366
      3094.03653083
      7785.51208057
      5700.18722915
      12810.05331155
      5202.95933109
      5868.72453872
      1180.24182673
      1351.07896724
      4724.81415472
      5768.06639088
      4340.57324830
      -928.44670389
      5930.74004913
      4761.09096429
      7585.17993364
      5871.52988016
      1657.54505676
      -1741.90925377
      3721.66346447
      -3265.50748514
      3277.17171413
      -700.94553534
      20397.88555865
      -12151.46918752
      6683.07074838
      4003.96253491
      6831.26469177
      5056.44890487
      1437.16528695
      2430.98935329
      9254.34948256
      7900.87801464
      5109.69635652
      -698.71520763
      11790.24689736
      6096.16910935
      7106.28145544
      1414.05406504
      2336.49488073
      1007.13585445
      941.47165839
      1882.76004990
      4523.91951005
      424.05118222
      548.85913613
      676.56742362
      307.98172164
      561.90635552
      1013.68888317
      -172.66828548
      1441.07319795
      228.18802433
      -20.00515771
      70.54707827
      -1080.30432472
      -2413.60070762
      -2196.34165184
      3474.19388866
      2288.02821174
      2000.82011526
      1856.81554644
      -2143.78342561
      1445.19366989
      -797.83760274
      -1569.11778055
      3449.90040683
      12169.22384219
      5740.64138689
      47.82083848
      4374.52062520
      7168.21591874
      1040.21976685
      -40161.08078057
      3902.23331121
      958.77343230
      2474.32928271
      3606.24157207
      8011.94921229
      15558.09198842
      3423.76003353
      4582.11329014
      -801.48105988
      22946.02374771
      8537.75797463
      178.13464673
      17717.29688321
      7711.15111087
      3525.40740646
      7459.06252931
      4027.74392584
      2287.25076350
      2784.89680487
      2052.50765767
      5636.06516316
      6803.55117775
      -4718.82730950
      5722.25325614
      3055.73526802
      9155.72460136
      4229.11837661
      2764.87243032
      1930.16627278
      11379.84472694
      7459.72594968
      -596.41995828
      1175.53601978
      2954.55491818
      -203.02783979