<?xml version="1.0"?>
<VTKFile type= "UnstructuredGrid"  version= "0.1"  byte_order= "BigEndian">
<UnstructuredGrid>
<Piece NumberOfPoints="5123" NumberOfCells="5123">
<PointData Scalars="Pressure" Vectors="Velocity">
<DataArray type="Float32" Name="Pressures" format="ascii">
      -638.18644347
      3886.15760962
      9424.51559336
      16422.37190490
      16148.76659682
      13886.13340168
      15278.08218808
      4918.14364596
      13463.21835498
      11454.06360904
      5619.43743839
      11514.52481643
      11406.13461477
      9640.09782464
      9840.97654965
      3738.35428675
      9934.93678223
      6890.49215386
      7488.46229442
      6826.30605890
      3085.32759129
      6293.87564586
      3472.57971338
      3316.83811878
      5248.16768467
      3216.44356834
      5718.45633870
      4372.51181764
      1096.99139254
      5038.13336076
      1535.45151141
      2001.10787276
      1287.04250476
      -571.67491576
      248.27688649
      -2969.14537552
      -456.94320523
      -1767.43550686
      -3853.12845870
      -2060.44403277
      -3551.50142613
      -3287.52684968
      -1923.26732758
      -4056.12694694
      -2699.28880373
      -2837.14536424
      -2498.69959497
      -1507.30598458
      -3033.52561405
      -904.34496951
      -1136.67495735
      -1822.01304984
      -238.87670281
      -880.46148850
      -1215.21723169
      501.34159211
      -1026.48418453
      -1.03745996
      -389.66912925
      -668.97520596
      357.00632683
      -567.15848312
      85.47116223
      -382.69852380
      -328.90275234
      -84.39322696
      3247.43951788
      5654.45380251
      3843.54553513
      4143.71697715
      4561.29099339
      4495.03988243
      2776.71212520
      3057.75372586
      2697.46869017
      3238.73103697
      2539.35268870
      4717.16197675
      3718.71884614
      2613.72341224
      1633.59785177
      3365.68660777
      943.90287587
      2972.35139857
      2826.61787080
      237.62179661
      3683.74464418
      750.97609797
      3855.62120759
      2360.04303410
      3567.52857861
      4225.47151105
      2137.30780643
      3253.22586783
      3831.92246418
      2732.64758675
      4168.82328946
      4299.40844396
      2889.14678346
      2873.49182557
      2930.33047896
      4415.52377266
      2379.59015031
      3658.27485436
      2457.67783031
      1549.95921351
      2201.26161770
      2406.25940051
      797.81022475
      1397.85105649
      1204.38344385
      471.55876187
      1356.15198691
      277.68602628
      1037.86892992
      1044.30933940
      839.63907433
      924.07416842
      617.53478367
      362.69544546
      1029.69481371
      134.33799879
      633.24591523
      618.43584184
      238.39612774
      751.76236799
      216.95045871
      341.34839233
      192.64345355
      442.67084670
      280.05124811
      53.46583256
      5089.62682953
      5787.45435822
      7794.49721442
      6202.69640345
      5984.65629937
      5523.60536883
      5129.31858534
      5567.78242300
      3064.63869598
      3975.20304501
      7898.89749960
      2670.13655924
      1669.52040511
      2337.00064009
      1896.12142723
      4272.05205748
      468.40805045
      1010.63037183
      1332.62851700
      265.23255295
      3375.32228900
      -384.97216061
      -43.68990225
      5081.89399307
      -371.19626251
      -1383.26339725
      -79.51221201
      -39.06239870
      2100.33401895
      -283.86312246
      -1103.71400096
      73.70870747
      -407.34488684
      1126.50587601
      -703.21909832
      -1164.76824595
      1957.95983332
      -495.65799574
      -2052.15593655
      -912.50462341
      -973.96564246
      -136.64013843
      -914.64902033
      -940.68440827
      -695.14480125
      -1172.67862542
      -168.43049342
      -1058.87042469
      -1270.89535168
      511.63290297
      -993.12618503
      -981.99590463
      -267.77652606
      -378.46356643
      42.09078661
      -456.18272800
      -315.17551409
      -171.89991639
      -189.84535754
      183.49919248
      -278.84615235
      -226.43232572
      142.42189703
      -62.51107142
      -570.76697180
      -52.73810938
      9428.92717496
      7538.01110487
      992.08146794
      7271.45836729
      4524.86132251
      6017.43177031
      6034.98465866
      1540.47810435
      5393.86511773
      4749.22417478
      -1114.39115629
      4387.73779606
      1880.50236884
      1197.70748340
      660.19375516
      852.61027833
      234.75137825
      -296.53158591
      838.21967458
      404.08825557
      -860.11726574
      1095.63741462
      1202.05607247
      -2260.04215374
      1611.09735634
      1406.72415703
      1208.77774522
      -122.41194881
      1676.02050531
      1021.77811712
      2365.30172108
      1661.92938462
      1290.16667793
      1848.85236875
      1147.05366530
      2624.44828982
      480.10738711
      787.18561528
      2517.30898790
      908.41046784
      -280.16621570
      1402.92793301
      -1091.36451322
      26.78637322
      -1130.03998249
      -1302.44499109
      -61.86154917
      -1569.18849806
      -747.44278912
      -1458.33936366
      -919.33186678
      -295.11238377
      -857.11973260
      -410.23552963
      152.12046725
      -539.09941361
      173.65379302
      -288.18199048
      -21.57831523
      70.59826955
      -186.61314664
      215.21977291
      -272.27728201
      -127.06657814
      217.14838427
      -14.34168685
      4918.27182246
      6775.78950260
      -2409.37055825
      6200.29546538
      7925.61010962
      7525.56744220
      5961.58832187
      840.80256535
      5955.24907960
      5834.22230210
      -689.33738617
      3151.02947058
      3733.19627691
      3543.17068695
      3476.89354029
      863.92814366
      2052.80749387
      5102.16206666
      4309.88643367
      3474.19278359
      913.56343118
      2597.52863830
      3872.74380063
      -24.97947898
      3108.53598871
      2332.61596938
      2001.51349638
      3239.11651224
      888.59201750
      4185.31537483
      4187.32454830
      4604.79148499
      4809.97448220
      778.47936712
      3702.51593467
      2560.19520925
      258.98025540
      2441.71207396
      -70.81676696
      962.61971845
      705.50784086
      44.03580925
      543.99231302
      823.06312745
      530.96683424
      -678.09384571
      -773.16640235
      -576.71917682
      -614.38706023
      -1012.42689248
      -766.77128570
      -1075.63521681
      -172.03264744
      -211.68762730
      -526.92161205
      61.35981515
      297.69163647
      518.38841687
      124.72236633
      -103.28222368
      91.52799016
      24.62747130
      15.52058036
      -46.88905047
      -190.38491180
      66.29050923
      2751.96497160
      6545.74959465
      124.80057444
      5180.99158933
      7450.49853183
      6358.44450645
      4570.20627624
      1202.04262040
      5288.32754146
      5288.45753590
      2570.00095518
      1776.45368067
      2467.58331112
      2008.48293867
      2115.32316972
      -349.27387035
      962.94063721
      2565.03142869
      1962.16293865
      1746.20130587
      149.07275496
      1802.46097209
      1119.84954552
      -256.11902398
      566.49992192
      707.53937119
      736.80836666
      2925.97234318
      -449.95745422
      2557.78078099
      2560.93459696
      2133.69387339
      3567.73211149
      769.47206042
      3362.69362613
      2143.80596767
      845.14243432
      1148.36774108
      1330.64870006
      520.74340846
      1065.19004794
      421.97024087
      -694.72641638
      589.25690981
      -634.79125937
      -1065.69666369
      -393.95121753
      -1510.83055702
      -1000.22045971
      -219.21894677
      -1709.48985855
      -976.78313594
      -1011.53467652
      -512.21319889
      -368.33281207
      -427.32843200
      23.22618439
      -156.48710642
      -44.94656823
      26.85261839
      -41.39987461
      80.03456524
      9.38305950
      -262.43822753
      136.99499277
      8.70372922
      7841.54307204
      8530.27844746
      -1573.83887133
      7477.57152851
      5298.13915662
      5883.76107486
      5807.32385713
      508.52780825
      6297.71233473
      7305.98246032
      -1124.96658993
      5865.99587851
      4531.55318478
      3979.57197580
      3547.61332700
      1012.67548646
      3027.59123149
      4039.79606619
      3368.56950023
      3326.18767553
      1434.87135565
      3462.55578317
      6691.25069803
      -667.56895236
      5083.63075495
      4931.74635734
      4442.63708238
      5005.28639365
      2694.27524571
      4857.43533171
      6539.26782694
      5658.31384889
      5025.01411647
      3274.40469115
      4793.13871854
      6140.87824591
      733.11786820
      3872.17028938
      3230.83647122
      2976.52625802
      1853.50125319
      1408.05068257
      545.47508799
      85.66079873
      46.21938858
      -960.67636177
      -200.10158355
      -809.76569204
      -445.83981053
      -1566.22386030
      -338.13839228
      -303.73248271
      -85.69574671
      -251.27697451
      -60.22986697
      86.38948348
      168.68581213
      350.50443209
      134.21193203
      96.13778743
      227.10839916
      414.95479118
      -140.69846289
      136.65059308
      180.10513030
      28.76185811
      -11319.49202826
      -106.28094197
      7636.86775403
      3.05228064
      1924.71397341
      693.99173827
      53.54464274
      6943.80018023
      -71.77849129
      -86.39621531
      4517.39162748
      750.22677791
      1454.91588599
      281.24693340
      134.44385899
      3960.33924065
      -152.81696712
      877.23436747
      572.33726474
      178.46710989
      3865.92443111
      518.45230737
      -751.00669475
      3455.13945338
      1779.74355680
      893.07956103
      1622.12053387
      1443.26278659
      2076.81297318
      1576.28919550
      512.24657492
      1021.90423596
      2333.41341154
      2159.65760770
      2294.07365529
      738.29152475
      1488.88940159
      2938.34988009
      1805.13877108
      1184.95277261
      1098.92060470
      843.73656267
      841.22599602
      396.16160317
      -83.09179151
      -492.73437217
      -257.25279034
      -513.20778901
      -1004.10945208
      -293.07992690
      -274.18573029
      142.48674137
      -272.60665799
      -464.35296579
      -82.71037644
      -367.58291273
      -271.88327517
      -202.47912912
      -99.95514404
      164.55686968
      -100.83699110
      -263.74849923
      54.10905607
      198.37330564
      48.05132005
      51.69858765
      7554.05026510
      8084.00821537
      -1625.20293290
      7712.29253655
      5013.34587238
      5529.53856655
      7466.74170685
      486.41759078
      6174.29948105
      7852.63119408
      -308.29130395
      6161.82807935
      5179.95576519
      4363.50740183
      5350.73882820
      1048.91063410
      5089.32119919
      4306.01325402
      5072.61240934
      5286.84009117
      1189.20687492
      6242.87445033
      7644.81890116
      -352.76405583
      7075.33037999
      6441.68600528
      6210.67346204
      7222.13215732
      2683.44461262
      7134.23851767
      7597.91007711
      6614.64696518
      6959.98425604
      3245.68552461
      6408.41082606
      7280.26239844
      1327.37596768
      4845.98241445
      4741.83652289
      3991.61833818
      3483.48500433
      1475.69337599
      1552.62133614
      861.22630507
      118.60539775
      -62.20861251
      -572.70237891
      -618.77885942
      -119.76630149
      -1116.06242923
      -287.42382225
      -158.21580992
      -163.97388817
      176.95213574
      -218.30006098
      330.81023674
      271.03401473
      304.25376094
      328.09511601
      39.18797502
      384.21940633
      424.54587376
      -39.52209241
      237.33996291
      366.55923893
      100.29821448
      3519.76791979
      5193.81935572
      -176.83700291
      5925.06074990
      7613.78267690
      7961.21285005
      5866.66073318
      1233.88632128
      4672.17729305
      6820.36455163
      1755.30585034
      5650.63549482
      4076.71513991
      3224.48994361
      4782.08811287
      691.03195282
      5693.73138404
      5154.31932290
      5439.86439861
      5862.18212652
      1572.11050094
      5371.85951035
      5339.09901769
      269.44689564
      6679.26196672
      4929.14575225
      3400.10021014
      5914.87013107
      940.63588898
      7300.11675566
      4954.48680510
      4808.91934524
      7653.85234643
      1458.39931759
      6669.07377370
      5370.69801132
      866.66874135
      5642.67695269
      2555.49063136
      3021.96104723
      3208.17781366
      1056.82633598
      2167.46798850
      1171.96386249
      567.76625197
      95.38401132
      -557.49053352
      -349.44718520
      -840.31193746
      -890.51913039
      -250.93637157
      -789.98456527
      -439.79234830
      -339.79643235
      -371.64469148
      488.78565341
      150.59188537
      430.23224016
      356.68294225
      -192.50726061
      387.72197150
      -25.21251361
      37.01724378
      310.11574961
      46.86266390
      119.32024845
      3299.78968276
      5369.87373667
      -1185.43019656
      5776.48402914
      7336.62107549
      7350.65176516
      5866.13661398
      1005.01546736
      5307.46916765
      7564.77711715
      2187.50938380
      5364.25429233
      4567.53580718
      3731.41429917
      5304.39352417
      924.27110048
      5509.64223840
      5626.51614413
      6086.09704803
      5861.61614445
      1222.81542916
      7144.73280951
      6774.23076007
      1094.86301815
      6847.02527907
      6211.86268151
      5970.91734617
      7329.53802406
      1600.29989346
      8197.18663728
      5773.16485645
      5554.65168086
      8560.85767653
      1910.22116875
      7981.64485284
      6333.92023381
      1582.50634741
      6389.73925279
      3919.16617922
      3232.90280189
      3975.88154223
      1705.90412381
      2113.84169032
      1919.39956229
      366.00411694
      413.71274665
      -114.41306292
      -263.92678089
      -204.87246224
      -320.31737181
      -615.89652264
      -281.57720563
      -389.26410224
      5.98575400
      -190.25565020
      251.50666240
      351.38801649
      262.26582165
      520.53660015
      -62.78196721
      408.10999346
      338.60678390
      12.29629135
      133.37995631
      383.20917359
      87.98054316
      7375.99658074
      8305.64069791
      -745.10345972
      7752.79251281
      4944.67820680
      6776.44126990
      7750.81023197
      311.21057248
      6969.83569596
      8075.82366214
      -488.74555146
      7780.76100002
      5926.02243216
      5606.90823062
      6937.09855181
      2420.11394635
      7288.84232659
      5579.74726660
      6769.18816616
      7579.64349174
      2374.20786959
      8244.29716042
      8669.90744928
      319.46790172
      9311.55569464
      7678.52747027
      7686.25909478
      9149.85697984
      4274.28330498
      7912.59245290
      8582.17576688
      7060.08137811
      8025.98993215
      4583.45412609
      7133.88468499
      8661.21089263
      2041.11057661
      6353.06106171
      6664.26965809
      5771.06657172
      4282.71305042
      2621.75267899
      2353.74129658
      1098.15616314
      679.66005448
      -100.77484537
      96.84721862
      -415.60271014
      -347.16001671
      -1122.63609079
      -16.93109391
      -170.69284713
      176.40589223
      62.60693683
      76.70645634
      466.00901034
      213.34417745
      385.99738983
      357.19915657
      161.56460066
      443.21552407
      516.43037471
      39.71081925
      360.45360163
      307.01870271
      95.44064355
      -8474.64523403
      -256.07152327
      7468.41566925
      -166.05935686
      1502.92747214
      1453.91109475
      1250.06178538
      8133.65581233
      -59.20916849
      1472.53701082
      5480.09740975
      2678.41691608
      2357.77160462
      1553.46747588
      3687.28288562
      5242.74684605
      1974.89857320
      2085.70717511
      1742.72876741
      2614.65928695
      5255.54295297
      3384.69883817
      2446.65775873
      5880.77083378
      5052.00452134
      2871.46486094
      4828.89802584
      5391.89359874
      3133.19262226
      4636.18721931
      2840.20454888
      2448.29160209
      5189.86410747
      3277.17812812
      4662.34131352
      2863.46311040
      2962.49658922
      6010.13870775
      2338.08929001
      3303.92060296
      4110.66300557
      1123.34280508
      3024.17414508
      1405.50118713
      513.05165435
      1027.55315950
      -318.98619416
      432.25704860
      -67.35085976
      -300.40938608
      560.36347501
      306.79428667
      134.41115798
      446.70452978
      -158.56392457
      272.86680690
      116.38017680
      -55.10316210
      284.27505516
      82.20060344
      163.24492970
      -14.96980031
      75.68296086
      372.97835961
      94.06263360
      58.94173056
      8749.20750670
      6858.16295281
      -147.06716279
      8085.73659497
      6040.50738904
      6884.42573617
      7810.65225849
      474.74686821
      8024.22463846
      10007.69578097
      566.23012498
      8660.06258357
      7764.10487554
      6435.85662237
      8466.19437828
      2542.22462341
      8398.28781141
      7433.25716573
      7431.24897437
      8561.25531843
      2762.28902645
      9325.93922753
      10728.02355289
      409.40433142
      10120.94018275
      9367.32870442
      8844.10194285
      10601.83060270
      4326.22941498
      9777.92970243
      8477.12970897
      7341.45974294
      9236.84795835
      4081.27721544
      9088.94674130
      9426.42407045
      1177.23001795
      8332.70322562
      7346.06175668
      5570.10152594
      5260.06216247
      3445.59227055
      2604.78114602
      1907.30040886
      589.64397824
      256.59366363
      448.16560410
      -407.41644538
      113.86449789
      -969.70160742
      47.94810665
      281.05985983
      8.08529407
      438.21128064
      298.14553064
      402.08773034
      435.93081112
      243.51944218
      497.67130216
      199.34700876
      500.42555491
      606.85820629
      -59.14603554
      448.86777763
      494.79573033
      23.73005515
      8975.41078555
      7719.60258706
      485.75569019
      8659.41090216
      6542.95512909
      8033.12769281
      8819.99644145
      1839.85911059
      9251.64927624
      10424.45576235
      703.72877580
      9272.61961478
      9417.59704004
      8180.89803400
      9581.98005168
      3517.39321588
      9022.29925284
      8108.75826620
      8366.75237956
      9879.09996614
      3910.61232137
      10276.28509589
      11238.59744217
      1617.45548949
      10966.27192695
      10034.53974465
      9185.72408513
      11088.53961941
      5108.93042850
      10190.72520697
      9057.96586973
      7934.34631245
      9753.71417752
      4851.19142745
      9551.31745814
      9920.86328457
      2139.53351179
      8839.28322690
      7964.68718430
      6283.87668960
      5620.47127200
      4028.13499609
      2942.16454849
      1961.03835443
      1188.57719713
      324.99018774
      855.28017289
      -60.80321190
      55.96413476
      -620.30543305
      313.67068314
      327.75531685
      328.66500650
      420.00240023
      512.86765028
      610.75304783
      361.53899305
      514.84306508
      446.38319004
      302.33713010
      607.48010836
      585.20531561
      115.75907255
      496.55528992
      426.36649221
      75.12207022
      -6916.45417449
      -79.66978414
      7496.52441291
      -238.45690779
      1348.42378819
      1678.61455856
      1810.91079272
      8604.84890487
      844.95202404
      2477.06104070
      5378.28942118
      3434.39165164
      3401.13933492
      2192.28640248
      4396.03012174
      6019.86649681
      3122.80127618
      2435.76160995
      2967.86833174
      3699.91457613
      5974.35546282
      4754.24108861
      4013.88569573
      6602.94659110
      6171.34252510
      3830.90728869
      6246.38089150
      6616.91881522
      3872.91150172
      5834.81933312
      3640.57281683
      3542.59870805
      6320.53242474
      3723.52201313
      5682.02524237
      3856.78036357
      3291.80205559
      6899.65550816
      3005.79246700
      4125.43501443
      4955.25231685
      1489.93341128
      3851.47111797
      2030.55722268
      1096.03294757
      1627.64780348
      -190.92327115
      811.22673747
      342.84271909
      -278.41470455
      859.59726330
      598.40822563
      482.55773783
      708.09581234
      -48.04999383
      540.30193603
      283.62099860
      152.84766753
      550.64251318
      109.06161015
      275.16470903
      98.50745840
      -4.87926653
      379.56555456
      81.31385697
      8.85948417
      8481.74921444
      7889.61705628
      706.39266311
      8578.32373061
      6559.10595651
      8162.50429537
      8336.41803336
      1578.12278957
      9377.00132760
      10136.57419077
      -468.16097816
      7834.52421855
      8731.02267737
      8256.25456240
      9090.60613243
      3917.76708455
      11155.66081069
      9084.61921442
      10739.87691832
      11236.33957682
      4581.39905271
      11925.89149934
      11630.75850348
      3024.99874183
      12055.17860335
      11102.33805404
      10693.43232790
      12134.87296787
      6052.92132841
      11165.93019173
      12031.11226830
      9925.63864217
      10571.32579803
      6337.98002376
      9385.18084860
      10843.71193837
      3353.79020597
      8416.84310137
      9130.62671029
      7947.43990721
      6493.56850895
      3986.23064481
      4210.16977845
      3194.45771290
      1804.83039021
      1113.20885572
      833.31982538
      228.67103702
      375.65161929
      -335.56533919
      514.68203524
      677.66523468
      757.80983187
      834.58657627
      506.66565432
      930.06365841
      945.54336439
      718.28565940
      744.79804743
      407.39823898
      586.33068065
      681.26037181
      191.74710894
      402.59639879
      452.34473138
      106.62693305
      5427.78705688
      5526.37388902
      -183.57058641
      6223.66756628
      7358.08255672
      7113.00828329
      6664.99205034
      3067.74796133
      8242.16379595
      10097.12564369
      1122.71566888
      7347.66345773
      6987.09916076
      7521.91794689
      9072.16471444
      2086.85505817
      9595.86828145
      7264.84513661
      8501.46561618
      10032.88223371
      3438.63858415
      11190.25084001
      10221.34082151
      2929.73116083
      11041.37277049
      9458.86074584
      8559.03294498
      10865.11418415
      3414.92667374
      11456.37192268
      8368.21404302
      8027.51698170
      11926.04510802
      3631.36581199
      10318.03683292
      8636.01972904
      2489.92291596
      9336.76477048
      5677.10156695
      5543.53221789
      6364.23254131
      2974.38164058
      4537.09402616
      3260.19721799
      1852.82841719
      1544.99902287
      572.07191023
      719.07956352
      269.20976408
      -131.19982597
      435.55008562
      151.75160959
      443.09169769
      614.31029417
      239.28069874
      1024.43054431
      620.46560609
      788.58871213
      819.97007781
      143.10939499
      647.26548553
      343.23091354
      134.57974638
      365.59733822
      254.78439593
      37.13613228
      5670.04619721
      5666.06494597
      322.83592071
      6093.82613969
      7190.81995223
      7464.99710765
      6095.24067911
      2545.92283031
      8213.18372999
      10407.54525523
      1747.78638765
      6753.03645302
      6787.75872328
      6797.30847175
      8390.15049171
      2193.23885951
      10556.67003810
      7062.33426080
      7905.63507664
      10751.58926187
      3639.07593906
      10977.88559058
      10003.49615663
      1784.51035302
      11186.97528033
      8899.10006677
      7502.26418549
      10687.47825388
      3315.57944717
      11798.38044821
      7936.85483248
      7057.09872950
      11999.87604031
      3462.63596533
      10547.51914382
      8529.08971915
      1766.72689733
      9462.98296850
      5490.57333418
      5849.20838612
      6767.65858436
      2842.63487260
      4868.69669538
      3343.41319686
      1502.37615769
      2032.31558536
      556.03107365
      771.05281947
      315.30557961
      -433.89960433
      731.58095474
      269.71481883
      299.32405206
      767.52951261
      203.25774155
      1110.15743344
      852.46745829
      575.58465639
      1040.95995465
      185.22221433
      508.41163407
      393.28891289
      -24.84094482
      351.22819902
      219.59616180
      -59.29626326
      6464.78035044
      7450.13850686
      -116.39068067
      7940.26251022
      5208.61425250
      6743.58781619
      6707.20419657
      869.62554555
      7776.78366866
      9391.01365316
      95.50829489
      7584.64456997
      7657.19379865
      7465.99662543
      7761.06905758
      2992.86651212
      8640.44743624
      8133.07016473
      9364.15308104
      9130.32999829
      3942.21187225
      10427.96632037
      11999.89352385
      3454.27752796
      11376.50899336
      10770.84382424
      10589.90164254
      11131.44567851
      5792.04924036
      10794.05333660
      12497.77150784
      10844.84187834
      10583.93725957
      6323.10731605
      9648.06163088
      11234.13723342
      4384.42527229
      8861.31169660
      8884.09272440
      8054.68826519
      6650.50479338
      3955.21986232
      3940.84726894
      3431.32392548
      2276.08790532
      1138.23039774
      894.49964047
      197.09302838
      649.71059548
      -310.59427289
      638.15164745
      795.33919395
      924.64193354
      846.31288913
      542.86084888
      906.79557373
      1068.57365001
      930.41347120
      689.11198375
      459.43304538
      453.94416363
      589.24994403
      196.07635208
      367.74150427
      353.50393477
      55.49248141
      -7195.10496829
      -1185.13874491
      6708.19929727
      -825.09355143
      671.29603475
      1148.77755933
      1650.11433462
      7122.57419220
      83.81508997
      1129.19617147
      4698.76454968
      2673.56252121
      1710.94567252
      702.87293118
      3485.76927702
      5179.89666477
      1953.65734040
      1278.94439109
      1774.02539043
      3221.36937368
      4911.71296746
      4013.70015024
      2532.09846572
      7091.40385146
      6025.49738051
      2462.09083392
      4891.60342498
      5989.59670098
      3385.73893750
      5190.97550208
      2256.00147879
      2754.35876773
      5803.70377873
      3288.52284987
      5255.79221837
      3405.58909133
      3239.53610966
      6324.12234819
      2805.46561258
      3404.29273581
      4536.57710753
      1545.55651723
      3669.37269991
      1958.14558248
      1267.06377232
      1710.20114887
      -126.13824486
      731.83578421
      53.68166527
      -59.15238729
      670.26359434
      342.16902996
      203.53242889
      719.24998832
      -94.37826601
      496.82428926
      177.73334115
      113.06198766
      566.74824859
      153.39549515
      206.48621861
      2.57376559
      8.86001051
      236.16078879
      49.31942626
      48.54198670
      6510.28905398
      5733.63874522
      -12.41556990
      6612.38988782
      4122.79372311
      5870.18502730
      5713.46700292
      248.81823775
      6247.72504333
      7403.53095445
      -1081.15487655
      5349.75852442
      5595.99673218
      5260.95131439
      6032.06242250
      2428.75097456
      6701.59920368
      6201.90279377
      7067.93157455
      7391.58398827
      2622.25667067
      8205.15296290
      10589.49536808
      556.50862348
      9571.83331051
      9190.17590932
      8481.25275185
      9899.22354614
      5255.83380531
      9670.66344449
      11542.73550532
      10328.00211944
      9772.54531080
      5599.00340800
      9198.83791519
      11047.06746305
      2792.92865493
      8264.59449915
      7872.44141834
      6872.99103916
      5865.53716626
      3695.93658411
      3850.85845559
      3165.71082064
      2182.05467765
      964.37031381
      719.49918720
      102.34379988
      694.33649910
      -763.12851223
      554.09172446
      515.37787691
      651.29639072
      684.27978047
      440.89685387
      879.93891740
      973.50397740
      905.80428775
      686.54523296
      397.37795220
      371.58941515
      502.84249577
      58.67433149
      258.97069633
      278.88414303
      38.48547859
      2672.79262590
      4131.93094257
      -565.38356053
      4442.15053622
      5340.35391942
      5572.64459020
      4790.30031748
      665.70639700
      4142.61613032
      6857.84937196
      2072.92797604
      5466.26037366
      3579.77773386
      2844.75975459
      4477.78245845
      954.69479182
      5826.93305660
      3911.74999989
      5382.79953524
      6415.65725388
      1700.27836397
      7860.77896927
      6408.33316884
      1293.60950801
      8418.59992287
      6186.62427700
      5673.44389764
      8568.66079780
      2022.58260909
      9710.35872950
      5667.80639999
      5864.75183615
      10135.79806529
      2540.53486046
      8834.85293355
      6486.33687027
      1575.06311673
      7763.00141176
      4584.86401535
      4234.29671420
      5409.38483814
      2139.53017134
      4036.10838654
      2428.62578989
      1274.58301486
      1702.22655385
      512.08987390
      424.88893156
      -249.04876992
      -572.88431786
      42.49690047
      -377.02602004