<?xml version="1.0"?>
<VTKFile type= "UnstructuredGrid"  version= "0.1"  byte_order= "BigEndian">
<UnstructuredGrid>
<Piece NumberOfPoints="5123" NumberOfCells="5123">
<PointData Scalars="Pressure" Vectors="Velocity">
<DataArray type="Float32" Name="Pressures" format="ascii">
      -1501.54211649
      -23969.28178722
      -28653.29224184
      -25493.28008765
      -24261.99582305
      -28560.32273856
      -29272.80775739
      11562.59566036
      9067.95809416
      -23569.16128140
      16834.85180045
      -22140.43487678
      9092.92981729
      10268.89916853
      -20993.64946475
      15880.77135886
      12016.92577859
      -27025.94562458
      6574.74978162
      10557.17898440
      10321.22743708
      5764.61129868
      4821.02218568
      2877.56072578
      -4945.82942919
      10546.82153387
      3551.78064736
      -2914.97863609
      3923.15720758
      8478.57173237
      4643.48347524
      2053.82673304
      2390.22725368
      1017.15128496
      2117.75875451
      -61.00299634
      -1021.44176993
      239.69618764
      -2860.24473035
      1136.64871247
      -4084.83639324
      838.04985980
      187.34179170
      6004.59595488
      2091.05578182
      -3956.13986731
      4228.00255390
      -1320.15344568
      2856.45200540
      -506.59691463
      -404.97328703
      -1142.96905081
      -1393.11541995
      -1626.95454589
      -3167.28337054
      1994.28933600
      -20.59066063
      -1107.74431137
      -846.11141881
      -678.92746438
      -380.76085895
      379.53242986
      656.96844487
      1623.91691408
      555.92799685
      1235.21576852
      10188.92014554
      21535.93304051
      6968.92413713
      4997.29092492
      4927.98014031
      2818.70878599
      6581.38815992
      18625.30522696
      13469.85824897
      4235.95609922
      4740.98713505
      8275.34405070
      7072.40607808
      3550.18950666
      4169.70891974
      8093.70842460
      -2716.66301256
      9100.29063748
      4002.94972223
      5507.72286806
      2131.79339225
      3996.91231379
      778.48391823
      4378.42466188
      -282.82998635
      3759.36599767
      17330.39963651
      3929.57023769
      2213.44512502
      -2322.69638376
      5236.60712221
      2087.16884325
      4878.76129688
      1283.78945415
      60.63791547
      -1354.86490572
      1873.02904010
      339.08023981
      1895.17497293
      2495.64055440
      -3419.55938882
      442.96330466
      1142.23337409
      2357.44598744
      1429.94352240
      332.93201172
      2487.59852294
      -180.93532589
      473.24070323
      -840.93509522
      2047.95059653
      1100.90942892
      1148.74021074
      -4394.85510014
      -3588.20136904
      5463.90303004
      1458.58865750
      -5757.75323278
      586.40308204
      2011.60407254
      -1205.96411886
      2096.27434718
      -2446.35081165
      -1282.31209848
      -951.91461341
      2455.63534958
      11072.15027481
      11034.08671848
      3144.68551636
      1848.75207619
      2681.26274709
      5304.12626151
      10614.79612539
      6984.54202244
      10943.41248035
      10921.28330636
      7113.92857034
      5736.41535167
      7424.69686891
      10916.14125813
      10762.35608173
      11249.69817186
      10196.90096470
      4504.48643573
      9207.27201882
      13607.99304213
      9954.43334776
      -984.17684335
      9434.05454568
      4163.08493425
      12032.16489287
      8067.88747237
      4109.02885527
      4414.50203750
      2011.35276055
      4256.03971389
      4960.78963195
      4812.01434896
      5320.12893028
      6103.74743782
      2913.24507877
      2910.00785701
      2347.37936843
      7899.93491492
      4196.42552929
      -1230.27481453
      1464.45717943
      3296.83073226
      4290.38949662
      160.15611513
      2008.27508906
      4263.82471816
      2164.51485617
      1719.77170787
      2491.15056565
      2906.18509710
      3909.00402048
      -5608.01234438
      5069.51999927
      2370.28999388
      4008.25196349
      -4621.31195649
      445.55773894
      4478.30783962
      -3000.50685655
      610.86583502
      283.49303917
      -1701.26167501
      -1202.77754353
      3013.14430177
      -636.85973120
      -706.41409837
      -18716.99888393
      6812.26853742
      6603.26011863
      12347.43290924
      4696.28838240
      5455.10328067
      9440.46151473
      13821.86575707
      1214.69991789
      6797.85423464
      8135.38106556
      6689.92357586
      11295.08287350
      5294.47895722
      11351.77201043
      10401.95096292
      4033.16725570
      9582.05879534
      8792.45084120
      3795.05770346
      5085.47712632
      8650.84333030
      4799.90106987
      9104.13079964
      2077.80964596
      9329.77465421
      4095.79711986
      7248.88543242
      6495.19615890
      2658.29759960
      7256.80205966
      4666.51713990
      1224.42863989
      3323.64174790
      3458.45006277
      11563.48836610
      7763.04973856
      6037.33911751
      4003.78027482
      -1120.45149642
      2940.74009479
      2421.46585770
      3938.37304989
      1319.43460725
      811.80868870
      3685.66409368
      -300.13799813
      2669.45086033
      4284.26990768
      3274.54279736
      4770.85203646
      517.26641131
      -81.74983723
      4755.50237653
      943.66367142
      512.75067705
      3819.19253305
      1603.93936315
      2329.24465125
      1104.35482251
      536.08230368
      1395.99100336
      369.79998838
      647.73528740
      707.97849058
      -222.79381377
      -27399.67254656
      18402.95827185
      16996.98507132
      14094.25724682
      8197.64382733
      8803.27067305
      9944.79906575
      5725.75772469
      25120.42623520
      5391.53255942
      2862.42066905
      5681.68548936
      9074.83373251
      11897.50615639
      16880.90754037
      10018.58403988
      7748.79201808
      4000.87091233
      7479.60381165
      8852.68306924
      6723.94573037
      7044.16389673
      6003.87951106
      7834.20702529
      6648.22019154
      9268.45372979
      -924.40955348
      7403.12650713
      9352.76588888
      10975.88646700
      8880.46425930
      8827.86589905
      7622.70710999
      -407.59400046
      5166.72219762
      9161.68925056
      9269.73660856
      5635.24096342
      7611.31577851
      3317.96883287
      -2234.22415626
      8879.45951943
      5679.95558334
      3824.51341379
      2649.07039616
      -1742.26627108
      6263.88052802
      6224.99632689
      3712.73877620
      1376.33983778
      2051.52885921
      132.11437674
      3555.52357078
      1796.27315549
      4857.77872306
      6817.24636909
      45.01839010
      1619.88582368
      1404.14470862
      3726.17453500
      611.64568185
      2337.30109431
      1837.47449059
      1482.16644517
      1249.18868144
      1072.38704885
      -20980.90566408
      6519.82939419
      9091.35481767
      3771.23786646
      5704.52639254
      20969.47948202
      5493.05767748
      42685.09139932
      8514.06650199
      11214.95481469
      11945.25791989
      3374.45665969
      -1136.71052646
      13346.59756093
      9134.63767643
      15619.69044177
      6857.71610359
      8004.79479445
      6475.60710663
      14909.38266669
      6356.91568128
      2247.86151796
      6234.87214950
      10975.80389215
      4071.87404325
      9814.90842138
      4312.72251473
      7608.21941566
      3124.68407821
      10279.27775662
      3058.28313085
      3373.78967893
      11773.73551574
      8330.21341358
      4499.75244244
      7070.84470554
      1318.78524428
      2220.63957130
      5843.15104379
      5793.08249066
      5674.20588620
      3866.18725346
      3409.04338908
      2501.09020523
      4865.95966714
      223.35284895
      6379.30196567
      7080.93011633
      1012.56630829
      4965.55315818
      3179.01572240
      3080.64621344
      5174.78329329
      1872.12779946
      -1710.98399714
      2654.18901928
      5029.03457394
      5114.50202163
      3269.13204215
      1140.61101848
      3130.35316047
      4691.76647288
      2848.02859522
      209.68880129
      705.94365049
      -637.48874307
      -12919.28777764
      5755.90898577
      8673.42104445
      5367.52029603
      4096.08516094
      7575.24011395
      9505.45668196
      8029.86051417
      7721.75615117
      8835.75862576
      15133.13658029
      8676.91466520
      12066.53730118
      8447.86467775
      2998.33965879
      1313.77066672
      3240.42224689
      10648.25663851
      6921.96387241
      4279.62745216
      12703.48732200
      10196.36128771
      3754.52358111
      3683.15366588
      9420.60135456
      7675.91206985
      7021.62126966
      4471.83622368
      8734.25159673
      5940.44428176
      12770.66560871
      3171.48106869
      -306.99677011
      896.81092964
      5983.34363705
      4692.95467368
      2892.63034915
      8467.72453164
      5132.27515378
      6546.62805359
      4722.43740407
      5852.58819497
      9147.84886629
      6506.30652191
      8674.94267151
      2393.25891027
      4114.46982886
      5195.43411839
      8159.94004442
      8772.08134166
      438.58457048
      2552.27442017
      4763.92422131
      5075.92322023
      7012.92289604
      -226.54250977
      2035.20000353
      5495.99787403
      9360.74258536
      4929.40737325
      -268.47949756
      5187.00469621
      2354.74957745
      838.76630500
      -222.78628433
      -87.81660379
      16774.24696786
      17420.98503133
      11045.94150306
      8813.99066556
      12853.78929503
      15395.41170006
      2711.15899568
      7875.55654349
      20731.40504285
      15628.49662561
      19944.68802777
      13690.63978254
      5415.61000829
      -1210.37834229
      5330.15101939
      8864.05142640
      12431.32357869
      5022.80723143
      9748.14231944
      7175.09032433
      11765.20067061
      14642.03569220
      4735.12459687
      11568.66387755
      12543.41618611
      4486.18607354
      4839.97757799
      5079.61391350
      9363.10136980
      8248.95256476
      7029.31802718
      7996.44830480
      2762.36210772
      9115.13953945
      -3416.08576142
      10492.01758197
      2513.77784151
      5793.52428669
      8177.17714540
      5711.72136983
      10227.95154338
      580.94995154
      6656.71511369
      7726.49072430
      9180.49190119
      8041.79239514
      3474.93637797
      2400.10685033
      11211.65145579
      4015.40452590
      7777.21442952
      3933.60209134
      3172.08615362
      7078.26596410
      2104.96240271
      5210.78717381
      4373.05586248
      1728.39215624
      5171.74845973
      6848.76585987
      1693.24895988
      3764.08711616
      3219.06818368
      1443.82031964
      311.39125961
      -282.47812886
      -21336.21804100
      14819.39352513
      13994.47281980
      25392.49483669
      3609.93444545
      9611.60974449
      6148.05550475
      11705.73879820
      10523.29354553
      16133.63164543
      13792.56043604
      3569.42415454
      8955.09416576
      16108.43338641
      15376.52136919
      5330.86775909
      13252.11607895
      5227.32951596
      8164.50241102
      11169.08441651
      3509.60958432
      3991.68081179
      11566.07633592
      3152.75871937
      9332.18217688
      6974.33397043
      10341.70109362
      2101.22259022
      -1895.88360976
      5923.47834980
      13873.74894687
      6627.18842791
      5251.98521180
      9564.37411344
      8704.34737689
      827.58303997
      2935.29573941
      4983.88756369
      10606.62562095
      4473.35348478
      9284.56800022
      -170.70948800
      3676.91280358
      3282.86825413
      5117.01011550
      10017.67198451
      5381.75743065
      3714.98185349
      3511.85933893
      9054.57469395
      2536.86074039
      7631.12416579
      4639.56347773
      2264.35721682
      4241.76512827
      4058.91378481
      4210.42262395
      854.99724194
      5305.49899372
      4023.04628258
      1802.63879819
      2125.10538667
      751.45697662
      2588.29425440
      -1762.22507176
      1494.30541385
      13513.92559150
      40804.26128181
      20491.40619227
      13940.44901574
      4799.35038345
      19696.65895033
      16396.20399125
      18931.65532334
      5235.94187120
      6635.23816152
      9591.63530420
      11041.65274454
      12920.95816305
      9130.39426810
      9557.62814297
      14508.33895360
      2117.97208222
      8531.20863638
      1671.83881990
      6090.21518621
      12016.86039798
      12754.62273555
      4608.58075708
      -99.41098131
      14578.28852086
      4942.13822510
      7040.76872283
      7137.58401270
      10181.77757710
      1930.75410934
      6477.15791962
      4092.02061093
      1950.99114387
      13420.15400616
      -446.60377958
      11267.80554488
      11120.52107697
      1926.56386847
      3616.71332827
      2726.26495091
      10133.50119236
      7177.01319970
      5251.94522750
      3120.47615619
      4051.47612436
      4248.95541743
      4006.30111741
      6578.98181357
      7214.26679897
      2926.59974575
      4588.33092470
      4092.07025640
      6152.96997463
      5762.06192427
      1811.63172212
      1986.77240396
      4063.48557502
      1285.09239990
      2402.29843952
      3974.20246245
      1946.87618226
      1397.08145456
      1625.42103271
      3214.94288865
      -2334.20473825
      369.35102893
      -18378.22992136
      7398.06784977
      5938.27386541
      11961.24940842
      3342.69347794
      15892.59270322
      25104.04524824
      1805.21539856
      11333.22063111
      -1800.76161519
      -999.03985642
      5909.25056190
      4827.42854663
      10702.58056753
      4306.47102921
      15047.92062792
      7544.94648082
      7047.49365671
      6886.71067016
      3418.81798324
      14555.19543490
      7118.80389564
      4888.32935857
      -589.22323952
      14831.08785759
      4452.28748524
      11970.76520483
      3972.44354833
      8108.68589003
      6093.72027378
      -243.72959038
      3891.56308484
      5671.89604486
      5271.87593750
      6796.38737786
      8677.26048751
      69.90750213
      3888.66476021
      7186.14596815
      6737.41682740
      8980.55450650
      2278.14857047
      7709.83731718
      4107.51059816
      6416.05828476
      3579.38056021
      3712.55880286
      5375.37190463
      1450.82964618
      3452.82906567
      5687.56059342
      4556.89853906
      5642.50318907
      4373.76047565
      3580.79199314
      3579.58191849
      5570.34710290
      2885.03110076
      1465.68839381
      1168.32157536
      890.22685365
      3420.53797229
      693.58356158
      2205.72633061
      900.23950574
      383.62088689
      18254.18934718
      9437.50298824
      10644.85447543
      11538.30516955
      7617.00999789
      12421.78338562
      12888.96435322
      6339.81996762
      6032.10603391
      22343.90081088
      7089.61615056
      8098.71526582
      2543.64545668
      6504.02419697
      9004.24591259
      15696.26603338
      11593.49026102
      10847.49974809
      7019.65921497
      10323.73489470
      5130.38159832
      894.83586278
      7033.30272570
      7748.15415670
      19386.30571718
      8348.63290047
      6040.49041026
      6660.45057926
      10496.16810620
      -1803.93221469
      5871.18988745
      8795.41646082
      14648.52071789
      6927.44731827
      5095.70707839
      9029.37093366
      7648.64446459
      9438.97084333
      4145.20311256
      1865.91479390
      3712.10294472
      8824.54412615
      7588.41008202
      5080.17450400
      3110.70811335
      3423.88065358
      4092.23885116
      8087.63547490
      8338.51524211
      5876.96020872
      2652.82683988
      2883.45907878
      3975.55901083
      6256.56260499
      4067.82459068
      5362.65958070
      4610.33359003
      3091.52742416
      1320.59707915
      2211.15210449
      1741.11136431
      925.66374198
      3370.80750945
      912.58760061
      112.98810465
      120.32272037
      12549.03172923
      14267.45121487
      11239.98294921
      7355.87413170
      5211.98486425
      11964.04330242
      12712.51298560
      3026.51215704
      10950.26266875
      2228.65498754
      9877.81153543
      3317.19680483
      3929.07486795
      6225.81103995
      7541.04040904
      9985.28821982
      5348.24690531
      5355.71684982
      8249.03683561
      4981.25753201
      3310.00730199
      10321.77132651
      3654.35414430
      7574.75558160
      9474.30266936
      5338.16295979
      4921.36599103
      6588.12205863
      10313.98856846
      12733.69372744
      7526.73284214
      2213.66112091
      9076.72193074
      10794.26617116
      6152.94897365
      2587.24269838
      7897.97434400
      12596.07664102
      12604.87101518
      5636.10491174
      5864.35802277
      9967.07717605
      7124.01230113
      7192.27248621
      7196.77853790
      7773.74665560
      3972.77536753
      3421.95824550
      3635.34145807
      5974.10110012
      4954.35189368
      2286.91081408
      5817.54777031
      7581.18283798
      1054.25651145
      1602.44245187
      5257.74985251
      8378.87002668
      2079.32540058
      1326.57904157
      4637.65683472
      1938.81144471
      -101.65607073
      789.54690004
      360.75182409
      1569.42792976
      4238.58435633
      10857.10265093
      14626.13692920
      12505.93062242
      7783.77928369
      4481.18132070
      15406.37359001
      14992.45081923
      16778.36200767
      5962.53723242
      7282.04407253
      2088.43170264
      2159.04479685
      8630.32175140
      10109.94189722
      5742.96767008
      8412.83165603
      1500.10449189
      5165.80898103
      3971.11362558
      6247.60045751
      7205.79823642
      6233.86510548
      6686.24599151
      2607.60176476
      4467.48087599
      1268.68251071
      2386.02693299
      10811.52350515
      2292.61084682
      7848.80901277
      5679.24281898
      433.11906642
      7845.10625827
      7176.83360185
      8245.94554109
      9024.41885563
      7432.24810504
      7788.28294121
      3949.05309895
      4080.79827142
      10052.39855035
      8525.61625383
      7898.87783863
      5758.71993097
      8904.77242924
      7517.06435641
      5414.97195680
      7571.81326188
      5890.00491750
      6995.39043741
      5485.74327344
      3692.84221611
      2142.70920663
      2223.28197527
      2878.75522359
      2496.45515340
      1317.55131659
      2703.88047157
      -116.16683080
      1975.70762151
      3194.17031315
      83.11727648
      -867.08901412
      870.79760739
      2121.32013031
      23722.65230980
      11512.07880510
      11203.15470120
      10981.07096104
      4691.41226380
      19060.31681292
      -1742.33801788
      11140.21857811
      4070.74394455
      13512.40631072
      3721.08646648
      11620.51021715
      -80.19748123
      4729.57547030
      6821.87908093
      -1283.02714879
      2078.58080751
      7628.58482679
      4574.98231053
      -1495.83382522
      8548.61618878
      5322.70096526
      -4267.68316893
      6884.64143237
      5496.61660641
      9987.61152053
      7297.17502516
      6138.34276273
      2335.86996980
      3294.32920077
      11246.81423135
      6419.94295596
      4167.22607885
      -109.94393449
      7064.24534585
      7374.62062508
      2847.67076087
      5618.25804422
      16028.77492996
      8387.11267880
      2308.68341611
      10334.41605490
      11171.73740537
      4991.77672511
      7020.62273732
      7340.20042253
      7208.11638441
      2658.00504518
      5781.39594748
      6613.19138065
      685.91094361
      600.15299674
      4725.76741757
      3451.57681246
      3864.62162946
      1155.18543950
      1048.15128092
      2532.02533836
      844.67177063
      28.95494072
      345.55255237
      3110.99711098
      3067.18566953
      -2346.21183760
      117.26788721
      -2238.10569182
      -28338.34729544
      1641.78586088
      7530.51744466
      3783.28531801
      1270.72326754
      9939.48429009
      15442.17651770
      -717.67261652
      -11380.96941954
      3423.79122990
      2211.00790276
      10709.69172365
      9127.10276431
      14415.74534143
      4386.09271930
      4582.74045508
      7211.75872408
      4133.61483625
      -7679.68478929
      13017.88886851
      900.57850500
      -1723.59301883
      2008.21356994
      3138.58965091
      2043.72595633
      5665.97606818
      10224.84408525
      5190.90197786
      7594.97006533
      5441.73675723
      7847.22976181
      10139.50507116
      10529.70864421
      3725.63188034
      4173.31673352
      9339.39808009
      10790.13887770
      -220.89230902
      6292.18722487
      10349.48689371
      4023.17177497
      231.73552531
      10058.94187414
      6161.23169585
      5409.28234793
      7750.36528106
      5615.94403431
      2679.77230978
      3912.02143893
      5631.13858987
      11196.51264776
      5467.69440037
      1631.13385223
      1903.01753250
      -1143.63968216
      950.13323631
      331.75191335
      1971.64595180
      2110.15813609
      2873.58795246
      1924.51222826
      1444.45304348
      1598.76567211
      -2761.56878200
      1632.66599013
      285.42641759
      12587.47928256
      12794.42319540
      16891.42911698
      11806.47403879
      10221.79050447
      -956.28265636
      11049.26182173
      18334.68429369
      18161.00871691
      6245.94888865
      7246.42238718
      -3290.62406645
      6941.25064255
      8225.61072204
      7782.08575820
      7775.79494712
      6937.15418559
      2157.63907853
      9683.67765696
      7102.39864699
      9848.37529007
      9382.10821638
      2059.30888438
      3530.17979706
      1698.65756317
      4082.64234945
      9121.25765519
      5407.58370487
      10335.43862069
      9559.86366192
      -1135.59820208
      1294.20581897
      4975.24740536
      11864.42128182
      2582.38628001
      8092.71528916
      4896.42183400
      5238.81561890
      5437.58712174
      7225.75596811
      -2443.82513242
      8567.74435942
      3738.11549431
      10802.49763237
      4032.63874629
      10302.09311997
      6254.59502241
      4467.62024776
      3709.82224742
      4885.95676576
      5430.72820952
      4782.44948259
      2545.17112372
      1253.59479711
      1989.28246433
      3953.25305632
      892.49132241
      2348.97163707
      206.42937821
      1252.87945038
      492.71494762
      1131.35231040
      1205.17661570
      -1888.29995857
      -797.07401060
      476.93052573
      -10276.28967402
      13560.52535459
      17571.40265011
      7176.61164476
      21609.36602031
      1968.01160444
      -103.17873955
      16468.96045890
      5832.32357638
      15837.34384230
      14641.25552601
      4009.60923648
      6749.12763656
      -397.27133022
      -4573.36142759
      5964.51610934
      14825.27780901
      6240.14591383
      1459.17434934
      3553.62766792
      1244.40531844
      1469.97507305
      3061.00931924
      4973.94703928
      837.87788726
      390.63384997
      10015.87892265
      640.75054464
      4970.50204329
      6594.35961856
      5604.68740454
      3956.84219670
      -1266.07947936
      9092.28502769
      7769.04617446
      6017.34545590
      3019.70189481
      7773.23196142
      2778.61281032
      6317.51628362
      6228.02519665
      1986.85963375
      5032.12703790
      8926.68328889
      6217.77381053
      2123.57954522
      3270.04201062
      5626.57339745
      454.03515720
      2202.89794758
      4538.92494289
      6066.17085667
      2138.04365796
      3546.93930363
      1740.65440318
      3206.78232404
      5004.69641072
      -395.60714288
      1273.22878347
      3665.16287424
      -487.11576396
      -738.62566721
      1474.37147531
      -1980.20920787
      105.81369898
      1019.85481864
      -30962.88851667
      8848.11684809
      20077.02991632
      -5102.50331885
      3688.99048590
      421.25021579
      8507.19481574
      260.05023613
      1802.72375774
      8621.97080090
      8630.21023457
      10687.80204229
      -2459.38752053
      6818.14013780
      5949.10215074
      -4268.83461851
      3028.31691878
      5264.69955787
      6437.66947284
      3781.91836050
      4131.29539239
      4229.04359185
      2940.41375355
      8629.40271504
      3677.88350870
      824.96564941
      5746.83118439
      675.93558183
      1925.99600842
      4013.86912415
      6079.52615981
      3614.43387279
      1580.54967128
      1731.44011523
      -1756.49556082
      2422.46199263
      7838.64991133
      4080.92059001
      4102.14340698
      3980.30417986
      3790.79013226
      4551.77147640
      5832.22385475
      2515.89757595
      1047.85457054
      6421.57140380
      3375.32687057
      6309.53787361
      7073.68774064
      616.30344619
      4140.54631835
      4973.82902866
      5905.48536521
      2969.21640193
      -1370.11993830
      3442.55789366
      4816.10436704
      540.26384380
      3303.95707859
      2176.98287387
      2127.85447779
      -876.35655680
      2501.41601495
      -1124.95283964
      264.57849187
      692.63804259
      -22717.49757763
      15390.10329003
      12232.19245488
      -2139.15277551
      -6386.66241134
      16742.74300332
      7000.13234068
      1669.32872845
      1742.66473022
      12286.74046523
      -2359.46821179
      670.60433728
      -4862.64873609
      9042.16254741
      -3330.72832462
      24055.13437072
      1851.54090716
      -11644.10422901
      7832.02416401
      14707.55433877
      6728.54016123
      -1130.22214311
      5447.26406334
      1826.41318199
      3700.29445403
      4384.75750314
      -1730.97377756
      1496.80083302
      -146.55003543
      7852.94611945
      6214.35811529
      4890.13628308
      2055.33927198
      -288.03281990
      9423.00506731
      5632.05549754
      2877.91762625
      7205.65642546
      4836.28106483
      6051.47302813
      2887.43944623
      5463.40076670
      7453.70094152
      -400.69378190
      2438.83738098
      -903.70569409
      8083.40020138
      4326.43504852
      6650.28528196
      3331.48883263
      154.84688949
      3320.66181267
      2870.23010365
      4962.64308944
      -4.68497328
      3470.24982438
      1475.78177704
      -127.24016594
      -90.07271013
      1443.46044010
      2938.85690728
      -2790.02304802
      3488.13283355
      -2042.96852032
      -2340.80577694
      3010.92221314
      13522.42505618
      10474.38817287
      7393.00140284
      5712.25692075
      5239.75407421
      991.84890099
      8240.80983109
      -302.46239869
      2606.09505258
      7005.91941912
      2585.70760580
      4210.47647369
      -12967.98533453
      5624.16180664
      6683.07513126
      7150.42218970
      19.78659491
      3681.67506725
      5165.90820975
      4635.42158562
      4406.32613378
      6352.21432107
      -8850.64997556
      6300.76954862
      4265.20011615
      5092.47772321
      1995.45006921
      4411.81119759
      -765.34116447
      71.12293304
      3235.72179461
      4647.19115074
      8908.60012206
      4532.40048158
      828.94147474
      4524.51658550
      2693.32200471
      1309.70389105
      1248.80388184
      872.06949661
      5033.49216794
      5145.32274962
      1822.95432177
      4199.11050350
      93.48932043
      763.25313788
      683.43722790
      5129.34986394
      4420.60938642
      6550.69793870
      2192.07778828
      1165.28927159
      4466.62100603
      2563.06627718
      -125.49302367
      -105.09444649
      1473.76129725
      2651.23861324
      1141.22241663
      1168.99504093
      1593.09040483
      -332.63623600
      833.14887413
      -767.59374155
      -2244.56211365
      424.05275805
      -10052.53927933
      8605.32083607
      19715.71812081
      10220.35469054
      -1371.92667287
      5681.83403987
      4493.37124969
      -434.75036117
      5400.15729407
      -575.11112860
      5079.61588916
      2328.83032479
      6089.78581377
      3622.95278336
      6454.90530653
      1367.30060000
      8020.76469565
      8212.02423434
      5100.14646888
      5724.14104359
      6373.11889215
      4160.95677551
      9200.55398076
      3693.04010479
      5997.72132198
      8283.55760141
      3105.41487815
      3259.35634668
      295.01250025
      -562.17247740
      -976.00958340
      2001.74519168
      2584.61797836
      7924.26273322
      5773.69553069
      2716.61062891
      5741.54395827
      3525.69915238
      273.46513881
      -448.11261730
      -436.41115081
      3634.20694509
      5206.79867596
      4752.47750082
      3297.21070384
      747.61013527
      -1729.04800278
      -773.64454522
      3680.13534379
      1855.91355901
      579.87802651
      3121.99841394
      2575.34790061
      4665.04105906
      6800.66771998
      -546.01683149
      939.96291721
      4447.38836247
      3155.86199942
      -1086.96435357
      624.38573613
      1340.76439915
      2253.43691018
      -1281.75051968
      564.23819230
      984.87438313
      -40161.08078057
      12854.38688616
      12361.29876318
      8947.43512692
      881.15840396
      6171.72266815
      5375.49670969
      -863.22066367
      1694.96651419
      1790.20271152
      6193.99736695
      478.79904439
      2006.51141019
      3605.01835683
      278.42908051
      9579.44047796
      2233.03430425
      -15.61916764
      484.11115547
      -356.25261702
      3350.39013796
      2956.82028593
      3281.73367301