<?xml version="1.0"?>
<VTKFile type= "UnstructuredGrid"  version= "0.1"  byte_order= "BigEndian">
<UnstructuredGrid>
<Piece NumberOfPoints="5123" NumberOfCells="5123">
<PointData Scalars="Pressure" Vectors="Velocity">
<DataArray type="Float32" Name="Pressures" format="ascii">
      791.26604640
      -16788.30050837
      -23612.35952677
      -25493.28008765
      -24261.99582305
      -28560.32273856
      -29272.80775739
      251.77171872
      331.82743085
      -23569.16128140
      207.13689705
      -22140.43487678
      893.55374125
      710.11673903
      -20993.64946475
      634.07967396
      367.04383599
      -27025.94562458
      1554.78960481
      -576.24134244
      632.22346299
      914.88041706
      1326.01614455
      1640.67185634
      -399.69759801
      843.06944231
      1038.10254145
      -480.42432517
      150.00476143
      -1096.87665822
      -80.97963343
      -745.34739567
      881.35075605
      3666.17454623
      294.44469896
      849.13646201
      12085.85719026
      3069.71484546
      7583.09963815
      1958.62746342
      -2015.96466640
      3412.63630032
      832.52957198
      5849.61556024
      5190.31263736
      12272.65777202
      6781.39137864
      12849.70177960
      -6708.61608724
      148.90841338
      2554.00444906
      3088.73860591
      5026.67001912
      4209.02233052
      -1011.49977147
      1536.73773775
      4419.69145233
      1231.15753815
      4042.37131665
      2462.02492389
      3256.10646896
      -191.40433922
      489.30583051
      -2673.56454756
      -1188.12446567
      207.68840017
      4210.90725166
      5389.50317142
      2887.24779941
      5208.21705336
      2208.44155282
      1686.02699076
      3014.88776689
      1348.80473918
      58.34353074
      1890.09576098
      652.41557669
      2635.24701912
      360.10745116
      -59.34647240
      163.57738788
      3729.43498831
      39.15986907
      456.19801560
      644.22224635
      331.37799119
      7119.68262169
      306.71035223
      727.46688185
      -1586.18667875
      -948.87060654
      5480.03730290
      -1868.87652501
      1747.98507573
      7049.17198157
      -1148.15452513
      -1254.00123569
      416.45058529
      1601.11312558
      -2600.88327713
      3942.89095431
      8135.74084176
      -5298.87781244
      -522.07497239
      878.99825317
      5097.64588983
      2201.82078744
      4233.79135563
      847.45412982
      1236.33793438
      -613.20727170
      11048.77852588
      2562.41716747
      4147.47595360
      1573.30850295
      -2596.44038596
      -3618.13550268
      1491.59322565
      3102.26137937
      2503.23590164
      -3142.44463029
      2803.91680802
      1659.11602822
      3226.24184814
      -224.43223783
      -1458.92093164
      -819.14120324
      928.74702054
      1167.88084059
      4453.79333960
      1029.70165612
      3099.57289044
      -24148.52814249
      -515.41551201
      749.94303617
      2666.10653825
      975.12097277
      4393.42281160
      3911.20029311
      -400.57450424
      -1544.82286075
      244.60129344
      2495.20621775
      142.04512273
      301.56473229
      -456.27902028
      -378.22171870
      1174.08386628
      -1675.60233997
      2966.34350912
      1159.13574489
      -1954.30343986
      131.24008430
      307.15142535
      639.28890737
      -547.64656354
      1798.95774965
      -1655.19492887
      -1162.26936105
      2394.22265282
      -62.01349200
      1503.51667591
      12168.85389862
      3313.66216867
      655.61096963
      1365.59466875
      223.82434406
      3301.81568237
      2241.90077420
      955.41122660
      4113.27971729
      -534.58453399
      633.11554143
      1624.61728498
      9964.64850939
      19.60971645
      1146.65430987
      4408.93850126
      738.72704157
      183.53933397
      1973.65879689
      -1125.04960743
      1300.95091682
      7961.41158124
      -4532.51619971
      -5817.55095726
      1249.75773933
      5684.57950052
      689.69231502
      30.53807253
      -2494.50498008
      771.85936672
      358.85892931
      -806.62025376
      1004.91401851
      1556.58587653
      -193.94566949
      4980.36349444
      -18716.99888393
      172.83394045
      1277.97566745
      2013.81297638
      2524.20063787
      2236.42349949
      5751.56041673
      2963.16783964
      1998.82811300
      3348.51782739
      3091.94355504
      1162.85940586
      7955.19326740
      2442.48409137
      2477.76240451
      659.81620658
      -446.21259431
      6806.68456100
      -2293.08050513
      405.37758300
      1914.57517599
      1575.58647569
      3139.82823374
      2018.84606932
      6055.83651746
      2978.37513004
      2730.39808654
      237.47344500
      1398.84470441
      2681.89497010
      5579.66133105
      6952.03064379
      -336.04809971
      815.10643786
      9375.48170306
      4499.12824058
      2087.13697558
      135.75149812
      1376.88303174
      1520.90872472
      914.47277215
      -2543.77322496
      3391.81306061
      -197.54603439
      2399.34616235
      4997.94996411
      1576.74904280
      2798.41770232
      4146.46440687
      4267.25771147
      6708.56011290
      4488.96791671
      2590.45766491
      1147.68844755
      2409.22024187
      -48.52522132
      659.87323568
      1259.56023272
      2544.62191656
      320.41381033
      45.20612129
      223.44989505
      2237.66706370
      3406.18740133
      1564.10231247
      210.14457513
      -27399.67254656
      2746.28719661
      3195.15410107
      1899.01047001
      2614.09694944
      4779.91088615
      1276.35512551
      -834.98457464
      4490.42949276
      2835.49375857
      6086.23156249
      1884.57943270
      3711.53782981
      3695.21800311
      2946.44178972
      2900.11912558
      -989.38281488
      1741.20302418
      5216.27817244
      -253.59013680
      2650.74468832
      12626.98632125
      994.81925545
      1757.93743683
      2179.41346685
      1766.71593826
      1823.77242084
      1840.72946456
      2367.85412137
      1214.01953361
      1408.21715556
      1116.69590383
      2309.91057941
      767.39855199
      -113.59387289
      2183.37980485
      -461.39129830
      1837.80145272
      3912.53506302
      1679.02355513
      5687.60500004
      1394.53008841
      4767.27682565
      4003.32526088
      311.16963480
      2017.78152541
      1685.68993254
      -2837.35803800
      -735.95292722
      3242.00679977
      2716.95135948
      3103.23623713
      648.15727404
      299.38994646
      5692.43028153
      -69.70071060
      3668.35847089
      716.79614214
      436.16860160
      -311.27198357
      3862.73471440
      2579.39353985
      2216.96083728
      1376.97798005
      -747.62504776
      5697.09433285
      -20980.90566408
      5384.28368768
      4767.28510551
      2509.59557469
      2215.88159439
      1844.40501363
      10115.98174241
      7557.24048834
      2579.86982989
      1324.15818635
      11165.64844550
      10114.51396624
      2471.51942628
      5044.19733301
      4355.43624092
      -160.94458810
      4873.06922370
      3642.55895705
      4045.72166329
      3518.10509436
      3274.13651317
      874.39392695
      1110.75301616
      477.04624813
      8731.14943737
      9549.91028278
      1013.88309688
      2268.13438461
      682.70136712
      1338.31048965
      2377.25763445
      1196.33672003
      592.30935474
      3302.82048255
      1893.37363844
      534.82124300
      2298.08003335
      2365.90401306
      1801.08396558
      963.35772548
      2069.76953432
      4988.41070852
      6026.13922568
      7121.57608076
      -1051.36025059
      1999.69200691
      1628.88675667
      629.19537459
      4029.08594111
      369.05598384
      1709.62443848
      2316.79605949
      7388.12673525
      1086.87068800
      -658.96267228
      3204.86620370
      206.46324539
      1769.79579884
      2534.28776653
      2815.23889683
      2856.86310971
      4165.39231820
      988.47020268
      1672.66474408
      2756.70654363
      4421.91471995
      3655.16718518
      10045.72407450
      5255.74076997
      8954.78199239
      10746.10522428
      25760.13784897
      15536.72150192
      6304.48173356
      1764.76862026
      8372.77368428
      8121.89777004
      12340.94201604
      1442.93091571
      2694.81889368
      4755.26788430
      9966.41504342
      4487.99521536
      5691.24153867
      3077.62358083
      1961.47742148
      -1053.80654872
      1196.26188801
      6528.17085892
      1665.87151648
      673.32135530
      3375.18401974
      2212.91357828
      5452.63312938
      2316.36421406
      730.47981337
      5761.81421387
      877.13284873
      3023.31713336
      182.69243620
      998.83155494
      140.37046613
      3224.13317293
      606.57863937
      8901.02161267
      1312.39486887
      3478.52550685
      483.27162260
      3708.31740492
      2265.25771431
      3404.09134853
      -387.97291644
      2350.12022119
      3670.40733933
      3330.60494808
      1403.80743665
      -853.44842554
      8296.78761255
      1875.28362192
      933.15895731
      3284.57970245
      782.91919475
      6459.46359959
      6729.27062829
      8236.00195995
      3776.50073326
      2048.78345619
      2136.36056333
      467.58739475
      3625.09438366
      2008.35938718
      1773.00325347
      4980.13656050
      2525.39464794
      11455.97914989
      14394.26017025
      16960.54806418
      6069.47031150
      3773.34476195
      4922.05198995
      -8015.50958194
      3463.05908669
      6584.73323000
      -2309.60919093
      7372.76600216
      3176.74109885
      7037.03331664
      10671.60042981
      4682.52171737
      4557.15020010
      2586.15162931
      4133.80111748
      9369.04719382
      3883.40727614
      -2097.99768163
      4660.06562742
      10387.66306351
      3776.09642534
      2447.74645622
      9895.99757967
      6442.39503898
      8061.07326179
      6779.61933646
      6457.13745895
      -2080.87665573
      4966.15307048
      3579.11638005
      4023.33602866
      -1573.72163831
      5436.52530127
      3115.19224851
      768.40414370
      7175.53254015
      4292.93796388
      4914.36809022
      2586.00657349
      3535.08003602
      -1263.75544856
      864.69983316
      3307.95600196
      2242.66386723
      -154.79825591
      -1427.67944521
      6351.70593885
      143.86956905
      7246.39775379
      4725.84537529
      2987.33353446
      3153.60293199
      3611.00121736
      5160.74110792
      3088.76907769
      2138.62193799
      1550.30338730
      3467.76625111
      -537.51401405
      945.91982112
      3485.52323907
      -21336.21804100
      4300.50492362
      7014.01986587
      -6048.01517637
      2273.56559064
      -381.47029357
      11659.16582590
      2206.27498234
      18608.22715714
      1914.97541180
      10766.46290419
      8615.72150102
      17692.35338592
      5055.80406624
      36361.70060657
      3398.30246727
      839.52928597
      7481.98936269
      8151.52814608
      12134.01626530
      8509.49060446
      2885.76105799
      4492.57615651
      6184.37827291
      10848.06228049
      11349.69047186
      9099.31976011
      11343.94265303
      1717.54823496
      10889.26457364
      11808.09204353
      1733.49830491
      4357.44653278
      7808.64456004
      10119.88783237
      1623.25840961
      6031.27653392
      1894.57727047
      1758.53748009
      7788.60881113
      1779.38914193
      3141.75233089
      2115.13489311
      4045.68896555
      4210.52399567
      3035.27445141
      -2173.58615051
      3484.13482393
      2786.96693134
      2790.84265322
      3736.52841961
      3122.32254188
      4426.51109064
      9291.44322802
      1129.49959270
      2204.08409639
      3277.64984291
      499.27487547
      689.63725100
      3386.87261261
      -246.88801602
      671.17354643
      514.59945191
      2012.32165046
      1672.99160282
      719.10960123
      9726.56927361
      -16161.55176151
      5240.13418078
      10973.35739495
      3289.05968724
      9810.45563803
      2808.77216674
      7920.73220918
      10857.09150754
      3143.56089728
      22850.15505219
      15298.02192850
      4097.32249139
      8385.23225670
      9222.32619251
      7636.80816746
      3902.02882119
      4363.34802352
      3151.97455319
      1635.38772601
      6685.93749736
      7745.89094555
      3305.08902479
      4778.94011383
      709.95256819
      2750.65055464
      3482.76106570
      3108.11219761
      3042.64045637
      2863.89557438
      -834.26997478
      3804.87027885
      2452.76279298
      7666.83042695
      3795.54165947
      6289.02141683
      4370.26280970
      1865.33664392
      7565.87810917
      1851.25598060
      1257.07556125
      3950.61111053
      7195.17595345
      1346.46987948
      4714.55067429
      4414.35354145
      -925.35012277
      -4117.59309774
      1724.09075458
      3537.70538092
      2212.44796546
      4627.97699438
      11429.24999442
      4054.23181688
      2339.54951597
      3162.50078398
      2503.72809372
      5028.56884693
      -0.72057183
      953.63395880
      -419.38542357
      -1013.92676749
      -3569.11879691
      -4563.10020319
      1101.18601211
      192.93475965
      -18378.22992136
      -5122.03323266
      8006.24915723
      6108.09591225
      11907.07519187
      4168.93742222
      13588.60101419
      2501.28213821
      22967.71906071
      4659.02117418
      3397.50225434
      25188.91013819
      6826.38183906
      50686.48092761
      5868.38878241
      5070.36082298
      516.91615648
      1750.69103289
      510.90744876
      643.53907381
      2565.71978370
      691.09071067
      3379.25005131
      2397.77551287
      1451.16744133
      1888.94353011
      -201.06412733
      837.53364523
      3091.08005686
      770.90010403
      952.39140997
      4290.80687150
      3974.62547459
      2772.52375602
      735.55669989
      2900.54747540
      3958.28211229
      1368.90210562
      1117.59140105
      2416.76712176
      5765.52898480
      1102.57514338
      3612.72234975
      3858.85522806
      2982.06200775
      1278.96118463
      8288.33153067
      3712.25687672
      3609.04103436
      5318.88485540
      2180.96544428
      2291.42088491
      1068.61929022
      2307.63758108
      2484.10198835
      465.91327804
      1487.13126409
      -3015.76315045
      4109.49670186
      2213.68102207
      1940.75917240
      2129.69661775
      -2295.65581375
      -1196.85309299
      -484.27304587
      -875.45350992
      -15857.23209146
      -1688.21187905
      -414.03403285
      12494.54803832
      5535.26367518
      14199.78933977
      9291.89762064
      111.85788605
      8815.01908556
      12586.76042436
      17448.25393830
      9212.71294930
      6978.29075994
      10126.10001388
      1786.41344212
      5359.00143327
      3104.07219211
      2609.64434595
      1581.82845018
      1317.80577767
      2055.69436354
      5374.02429513
      2562.57066621
      1070.48706836
      2465.21951283
      -3117.18222036
      229.95591811
      2582.35383459
      438.48445543
      1841.59520858
      -86.80841577
      722.92568475
      2233.43989339
      4339.26108787
      6150.52450692
      1632.51726224
      1368.55288746
      4225.45474309
      1817.16717637
      1411.33295410
      1686.12233956
      1335.03708175
      -415.78981178
      2533.38548744
      4910.62287585
      5332.08133288
      2048.34123838
      815.30578377
      1597.93050299
      5658.94394176
      58.67255237
      3173.51885913
      -2070.04302013
      1307.55681543
      -133.40123135
      542.62518973
      1743.95374210
      343.42955356
      689.50888295
      4308.93832800
      2596.48893248
      4841.24909303
      -3634.18796105
      277.31022539
      3064.78794665
      2183.93316433
      -16421.54348760
      6457.04020179
      24523.03597562
      11396.73844245
      4173.71628685
      2369.99854896
      6440.58343806
      8734.88838379
      7217.96311091
      5770.94592380
      2385.43942182
      4434.62036375
      2398.10230651
      4594.25447114
      3566.88958873
      1502.22632956
      5370.89965353
      865.24326244
      1219.93527256
      3589.41453370
      2343.72762111
      2138.74516136
      2122.55994863
      2400.86359469
      1981.78424816
      2770.56277259
      1497.53458615
      1105.58658999
      3103.52680088
      2714.87788884
      2854.00784322
      1196.24105702
      2025.39091961
      2936.75377739
      4152.80615221
      2089.69831428
      1748.64227675
      883.85865058
      1639.79517942
      155.21549922
      -1987.64866440
      -720.59881393
      3606.94621682
      -1836.67683936
      1763.86065579
      3875.91374713
      749.70922932
      1364.43253902
      2228.55646763
      -1624.17774077
      1616.33632070
      1667.71706241
      11.87846776
      3435.45639068
      3364.31410310
      561.49555090
      1459.09181775
      548.29024003
      1573.56790354
      759.94228795
      4158.63737804
      -1714.25683052
      1074.00657244
      4736.03429123
      -218.56421922
      938.94552921
      -7886.36499036
      2093.57462330
      55.29093724
      19306.46854305
      11786.32096343
      4459.03962817
      4106.14655804
      19024.58087396
      1950.73432411
      3466.62414458
      3950.62946576
      2130.19752890
      2478.76283506
      7100.43486105
      2368.21454166
      920.78055935
      742.80500921
      -59.30311198
      -1303.47213447
      933.54295516
      1179.42172927
      3530.54901113
      53.63183964
      1758.28267713
      -1971.69323162
      989.20588160
      2394.58504773
      -2653.08529381
      -1073.23811610
      7706.34319877
      438.83563259
      2639.51169681
      680.84025542
      -179.31617245
      -34.21475912
      2313.29091632
      4701.23129812
      -251.88461230
      1544.83078956
      129.77464511
      1607.97543984
      2950.28731467
      1968.61572427
      2708.54349468
      -327.93086336
      1401.54554022
      1898.32744178
      573.43345194
      -2538.30591394
      -1343.74862637
      -666.47599843
      -586.24990544
      372.64424704
      -1110.00452617
      36.17602067
      794.54377836
      2849.20858142
      1951.92883522
      -440.18200473
      210.98774300
      3313.33047291
      -1832.54318226
      4674.36673660
      28.51555772
      3330.14012025
      1569.75363861
      11177.45634336
      23605.60121965
      22826.30902094
      10305.91324182
      9736.54759130
      3293.11580084
      4962.06345203
      5098.60197833
      2806.26913525
      5211.54172006
      2022.29012689
      3639.97094009
      1199.60053261
      1280.21919153
      -1932.44297211
      1290.72391514
      1554.65626223
      3743.98088311
      1911.81857694
      1019.76013760
      4191.04124667
      1748.99374991
      2731.91209950
      4462.90133220
      455.84827429
      4466.03260070
      -768.07967268
      1013.07521679
      4560.90175202
      1032.41741629
      494.22405703
      2666.99299096
      1710.34868790
      3145.18957084
      1247.55220057
      1836.32316219
      1720.77169407
      2324.96735137
      525.41451366
      2389.56721420
      -394.54163281
      -797.65804256
      3326.17758108
      1214.85557630
      -609.68105599
      -1373.24736072
      769.57232750
      699.93005670
      2564.57366271
      1567.85713595
      1134.41406919
      -269.67515290
      -208.37095401
      -149.70931042
      -549.89617229
      -3814.14266760
      526.16087341
      2337.52920880
      4579.97211941
      -2221.76967314
      -1701.72960580
      3376.17983638
      -1507.78526179
      463.77262216
      4641.96949467
      2653.75676208
      -28338.34729544
      9872.82267075
      5987.98726777
      6173.85022799
      4938.40163566
      9132.23846884
      3950.26037903
      2901.92823151
      4306.07053615
      2996.69509184
      5266.68732346
      5695.77102919
      3055.62058423
      4366.81228480
      4240.72277728
      575.94000483
      -2443.57908561
      2839.03915585
      -1830.58708929
      884.31253679
      911.34690518
      2749.45588852
      560.83756149
      -3584.99105480
      208.77971255
      7466.42854825
      2517.03657694
      -759.58973466
      248.31773685
      4773.24922732
      -2184.61999979
      1496.40410342
      3996.52970985
      992.84845470
      -81.23071325
      -277.02375432
      1074.22357029
      1117.48978027
      2268.87366721
      114.68727172
      955.51673344
      845.11508286
      989.19564348
      1689.59574589
      921.88164277
      2339.08951440
      1339.49474103
      435.26087979
      2259.80256083
      -1876.73121135
      2376.81763242
      124.95776442
      791.06762283
      1431.58134736
      410.72236902
      105.32567818
      -269.86467862
      -77.18366921
      2217.41222013
      -1264.58721333
      -4019.38670635
      1013.61059315
      -4351.71059873
      8912.83860571
      5343.45980382
      -7770.40096339
      10940.21684210
      3964.39865917
      4303.43513161
      2241.70288300
      4165.28193144
      5526.53732165
      2976.41703705
      6388.30103167
      1988.93410826
      3844.34693296
      2173.43954936
      3880.69993209
      3226.43603998
      3934.50970858
      2462.51736396
      126.37510903
      1848.34481197
      3364.57667536
      2443.90010281
      1525.45435956
      2754.87562708
      3818.16267672
      3036.45884596
      1165.85617772
      4023.50751399
      5302.29721533
      4382.39959646
      1505.57161541
      1100.96945700
      1573.45400653
      1502.37060292
      1005.81333700
      2181.55128662
      201.22171995
      3042.04081718
      -1332.89442813
      2608.36737284
      5661.42900462
      192.84974553
      143.68861351
      -478.94253313
      102.31851615
      973.36870345
      -653.90827992
      444.17367905
      218.90003047
      -838.86585191
      3650.34118407
      -206.92896304
      3351.04251191
      1118.91323958
      3558.93498593
      -2886.09001981
      -1153.64688998
      -989.20440830
      1278.07524738
      -3410.44601551
      1591.87245321
      -3388.19879264
      772.06559614
      1493.66103629
      728.81908754
      5778.00116593
      6132.53868862
      4083.55140437
      2554.57183172
      2732.00206683
      5317.30166093
      5660.01894967
      10219.34660400
      5816.57971892
      3351.81211779
      1920.11789893
      -3170.55206371
      1382.41309269
      2418.31933157
      2444.34777012
      -412.26797302
      4352.70015303
      2229.41193176
      1109.86828847
      1022.11067075
      456.07975595
      1345.31580332
      -581.60913553
      -711.35453282
      1813.36776344
      2121.78825727
      -5271.66613654
      1666.97318285
      3724.77624748
      5062.59820480
      3411.30407773
      3416.77560438
      -2856.59261877
      1040.44272326
      3166.54226928
      -1912.29440329
      395.43196957
      360.56161518
      2527.88551799
      2313.62733412
      905.24483303
      349.65314151
      753.45126494
      -536.04398404
      634.46500470
      3589.87417466
      1108.75103603
      820.99843191
      -406.26731353
      -789.67802174
      1134.86669808
      -2552.64410145
      -1326.31613198
      1283.43134828
      3409.65035732
      2383.75799946
      645.53397916
      -822.66621954
      139.75854608
      1221.34361524
      1375.77680629
      -273.80283756
      8433.10101929
      1278.17295231
      11971.09270547
      2376.73558916
      6093.51507759
      -469.19743280
      3075.47885229
      -1857.00657093
      -30962.88851667
      -5678.75686574
      6798.71933942
      5031.02155245
      2573.76299166
      -265.09897110
      2547.30421485
      355.76135678
      2760.88655677
      6401.02888174
      2507.30270853
      3868.86796105
      3013.57769510
      2690.84695234
      1077.79857611
      3514.70488170
      2925.14729446
      252.72689704
      1359.68223401
      4835.16133594
      1510.81172573
      811.35126718
      2738.08636490
      1223.83120471
      981.68124224
      3363.03651041
      1771.74872492
      3662.55128184
      3410.74612767
      -446.01407557
      -1165.77747804
      -4417.85233284
      1056.01846004
      -5114.64452416
      6091.30274325
      -92.66647961
      -880.99284272
      1123.00568196
      -1540.18774075
      1751.03055074
      937.56442265
      511.23967679
      887.93810978
      4308.32745147
      1150.81325792
      -1230.28311254
      772.78760131
      2424.31206762
      -731.02406792
      2934.98871490
      -2595.45311111
      30.40666920
      4485.27537899
      1863.10906884
      -77.46096704
      -40.12495724
      2883.64092238
      1703.92481884
      -2638.14984807
      -1310.71713169
      5785.24182133
      6755.84162717
      3072.21226280
      2443.22436622
      1818.99757900
      -3422.16784987
      -19317.15986296
      3439.32525334
      10333.35857655
      1519.50512032
      9218.75140089
      3139.12336884
      2898.83265784
      3217.25021823
      2490.54054633
      3343.52199792
      5968.12316712
      3204.08321285
      1446.05755601
      537.66225592
      1660.30189269
      2844.20019367
      2621.60407642
      2029.60977538
      370.44932075
      1527.31548648
      1917.51283605
      2491.98489804
      698.45731385
      547.44615974
      1521.85390370
      1368.53916378
      -819.14745993
      1006.28131432
      663.91852631
      2492.73174470
      1302.21768335
      -1973.89638303
      1920.40163797
      1670.94971860
      2816.18039182
      5181.35426828
      1721.68244693
      -2827.49088924
      2962.92901392
      1791.29118436
      3070.85468956
      3037.82273907
      33.74291760
      1488.54265755
      -835.67933350
      366.62199933
      642.64900634
      109.17751926
      1693.29429667
      -377.19769591
      -304.87862198
      1341.82073949
      -1157.57580489
      1001.09986899
      2691.05235564
      -731.60977489
      -139.48132141
      1196.76511124
      2167.06924465
      1956.25858766
      3416.40238006
      6089.67937913
      3220.46723814
      -1665.06649885
      3549.53579277
      1915.24014207
      3211.75720808
      1009.27610082
      4811.52316683
      4362.04677970
      2782.66246017
      582.49629963
      2788.76445272
      1783.57968232
      1782.96643653
      1192.12623252
      1625.21148022
      3939.57861681
      -220.28263878
      5823.65206390
      4537.15858394
      1382.29092298
      503.31398586
      1943.29561464
      2637.22717444
      920.65100061
      857.28973788
      936.03258138
      1761.94709220
      1190.62219666
      2231.70942031
      645.34500590
      6094.67035839
      2148.24508387
      2372.10626028
      709.45956833
      2350.33810779
      838.45054397
      -1177.91699356
      2258.47526383
      295.09545501
      1948.86665271
      2152.41925295
      345.83721650
      2021.87531629
      1289.12249106
      2819.65136573
      870.75425327
      948.99580208
      61.83914011
      803.93456457
      312.56734572
      1526.33186408
      953.85366123
      727.39250479
      1020.74613209
      1311.06184510
      501.09048325
      741.50882074
      -897.18291246
      2202.85382775
      -1581.73183947
      2356.22955196
      785.65091418
      48.51995755
      1137.30738186
      3172.46108077
      1837.49083548
      4290.65005928
      10014.04650894
      4915.55313818
      414.31012198
      6033.98581929
      1351.07896724
      4168.45075318
      3083.37267854
      3732.06771474
      2777.02301806
      2207.51494282
      3200.74258384
      2539.58887680
      2525.32517333
      1726.14578712
      1707.45256608
      1089.85701738
      2526.54378961
      1283.79168997
      -1781.19717587
      829.83303270
      665.06284792
      576.51904218
      1584.25177951
      1398.33649890
      3547.28214349
      1994.82003124
      3235.58525408
      1388.76340200
      617.72297402
      1750.67706431
      2076.18954024
      467.22282432
      3839.10431874
      1176.31569697
      1417.10531526
      2311.38003768
      1727.95965510
      1737.79342749
      948.82860204
      2066.25547313
      678.71966366
      -3033.80648079
      897.29015899
      -937.85470354
      4530.38351965
      -2665.36454693
      656.58345060
      378.71226522
      1454.80386422
      210.30926301
      -2998.35480665
      -323.56707696
      -68.39335590
      128.00410320
      -2636.13635451
      1236.41220720
      -775.23047513
      -353.53144829
      -17.21692816
      1607.41745982
      2381.28273357
      147.63866171
      -900.97713927
      2728.12356370
      2617.35991498
      2867.35953457
      3978.45205109
      812.14832506
      -803.33179332
      -40161.08078057
      7403.65205474
      2035.97212608
      7725.60112855
      1596.30768398
      1961.05781629
      914.55573239
      3732.20911693
      923.88270376
      1752.79054142
      4583.72535572
      1120.60162389
      3027.95244882
      5258.35725676
      3182.91993442
      2454.18141425
      2350.24925054
      1514.42352811
      795.76057796
      384.10483122
      1289.40828424
      -641.63840495
      1651.59523885
      -633.82851110
      2125.32230836
      1408.68821027
      4155.19169563
      2015.43816754
      994.77059680
      380.63292185
      3437.10667994
      -949.60885861
      31.33457782
      1635.73001432
      2637.55283333
      1757.58307598
      779.24318084