<?xml version="1.0"?>
<VTKFile type= "UnstructuredGrid"  version= "0.1"  byte_order= "BigEndian">
<UnstructuredGrid>
<Piece NumberOfPoints="5123" NumberOfCells="5123">
<PointData Scalars="Pressure" Vectors="Velocity">
<DataArray type="Float32" Name="Pressures" format="ascii">
      -545.74536947
      -17658.77787101
      -24577.23587742
      -25493.28008765
      -24261.99582305
      -28560.32273856
      -29272.80775739
      421.65345662
      258.73587735
      -23569.16128140
      667.19228399
      -22140.43487678
      -8.94952897
      472.91619217
      -20993.64946475
      622.41816131
      597.27844615
      -27025.94562458
      387.51651416
      0.99712809
      844.68561156
      -135.49283872
      -777.39349358
      -64.17649276
      -38.73486589
      -256.78962218
      -893.86198406
      21.03281175
      -157.09489969
      -56.10522150
      -316.85491764
      300.87814517
      -184.07839928
      -30.53678187
      -1782.23164602
      122.22448423
      -814.46099407
      -159.05562652
      2707.37900841
      610.57918491
      97.24662121
      5238.62923316
      701.29968450
      547.55373575
      281.03047769
      130.67106407
      -292.65322546
      905.51634645
      -1451.05923848
      -735.37128782
      1703.50841601
      610.34210411
      172.25339310
      2492.90965365
      3698.92214890
      -4009.51568264
      763.30152652
      813.53346868
      2221.50535326
      3102.08104926
      -2995.87197988
      -390.74693618
      -28.90792319
      4589.85655664
      839.05005293
      -1650.36719664
      4519.35621153
      5389.50317142
      464.99777053
      2158.15561295
      1015.42424495
      1193.34545983
      1276.73936332
      2168.83721984
      562.38267267
      2906.72105016
      646.60452864
      1270.82159397
      495.01879838
      745.71994537
      150.68558430
      517.60591833
      -7952.25892149
      973.07924934
      644.22224635
      262.46593894
      716.73244939
      5122.84094553
      -329.31053623
      -1400.60031386
      543.96713619
      2120.66240914
      513.59756019
      19448.08178191
      6230.58488826
      1909.14663462
      1222.67463626
      454.46649537
      636.71127305
      505.10382656
      -1324.75016758
      -444.33347873
      209.37710096
      -558.19986121
      396.61136251
      -1190.27770378
      -1428.69313651
      1063.08564808
      159.90403420
      -276.43368220
      530.08584599
      96.91993762
      157.61903507
      447.84828111
      -148.90873423
      154.60623613
      468.27339992
      -307.27545285
      290.80524701
      3833.15911678
      426.06314808
      1823.86509775
      1151.40575173
      4480.70792053
      5581.49103737
      2473.88177823
      1029.02281667
      -442.54419572
      -3007.78906823
      -3453.23380632
      -2997.96137952
      -17561.93778232
      -24148.52814249
      794.64391980
      801.03628762
      2543.41744893
      2588.97201301
      1789.12966852
      2669.84448516
      899.74912564
      562.34353563
      915.12509699
      967.71348034
      2313.63322652
      730.16966062
      -519.05803890
      1411.29955631
      2737.45116447
      -265.43514936
      2842.94699042
      -2387.27973178
      387.98407827
      3571.48852245
      671.79589375
      452.12963867
      -96.33950686
      104.48130676
      498.44593076
      -3982.93453615
      195.91377660
      2848.78320840
      140.54080065
      -44.16085039
      206.87597084
      3061.66943452
      1093.74380504
      -258.43021445
      217.94172485
      2505.23681301
      9212.73749948
      -540.00091701
      -164.54028058
      434.42074034
      437.87662391
      191.58312575
      -15.46589555
      174.61322993
      -434.95979578
      49.70008719
      -332.65727604
      385.06968542
      175.85596343
      -72.84329402
      -282.20044860
      514.82056907
      7072.36845980
      2145.63822073
      -2729.32693041
      952.86444324
      3939.89102672
      -527.64562252
      2449.35517766
      -5136.02487793
      12000.00966105
      32404.34140290
      12938.04757374
      6521.48335834
      3627.60213084
      -18716.99888393
      1112.82751886
      1349.05332565
      2661.08612711
      8175.42022422
      -2950.83046542
      3852.22580685
      4554.84463567
      1694.75550118
      -203.14799317
      2697.51351073
      3072.62857470
      1139.50769078
      6627.25339886
      -146.96997488
      544.64066290
      1410.58303215
      444.39572221
      242.30418151
      -1101.23201230
      978.47902135
      80.95970413
      603.66377357
      -614.69683277
      463.90855673
      1551.88026257
      -838.11149250
      171.47164851
      455.08663753
      842.15205162
      803.56086235
      1830.26663680
      684.64024144
      251.06236354
      2555.32313852
      522.08331321
      600.01920242
      519.05548702
      983.81705131
      433.33416555
      382.47996127
      -455.42012890
      496.49131414
      -970.65313072
      1130.63797377
      43.38547457
      1689.24991085
      2326.83966374
      553.29192572
      -1683.81727505
      -533.62918540
      -1342.04039123
      -1205.47949819
      1940.78770793
      -3634.89480513
      -357.34842374
      18.43368885
      3037.08563626
      1716.00551361
      14799.25135260
      -2702.14853166
      14044.11534500
      -14275.52642429
      15832.76901328
      4030.44013926
      467.65686323
      -27399.67254656
      3254.00866628
      5832.78546148
      3086.51691054
      -1070.99822519
      5684.58050047
      508.93807052
      1525.73213732
      1399.08036066
      1263.27153759
      2322.44179253
      510.61861818
      839.60020701
      1174.28554118
      -415.33268201
      -667.81638039
      1033.45948012
      275.36680498
      1367.59458676
      -12.88324224
      701.69938481
      999.39777920
      846.51447596
      492.79057620
      677.71763231
      682.41378561
      316.24977230
      -83.25896355
      489.44822632
      825.19993895
      405.78645714
      794.07785315
      1364.09575697
      396.39182597
      -347.55713467
      553.31591510
      976.41925601
      782.58515237
      935.90217151
      1454.30461472
      2142.96645130
      1594.55327723
      -576.23700035
      2172.52983581
      2702.13482081
      2451.52109030
      2386.98846719
      -91.20286623
      10741.60758943
      -341.86728346
      -169.36898945
      1584.59341346
      1768.96529326
      1196.01635037
      7104.56354756
      6006.90224684
      7060.48638646
      3643.03181017
      -5604.17776504
      3859.52966461
      285.99991810
      1387.36529618
      6761.45684204
      1067.64919910
      1505.12201563
      7694.23967664
      -20980.90566408
      7018.61990357
      4666.32468127
      912.81215312
      3249.42749815
      852.86424305
      1838.98708478
      3102.67024281
      571.61374900
      376.10117328
      6772.81028721
      1308.87858699
      1592.77572889
      3416.76246802
      1832.63883902
      2103.25959805
      2514.60627908
      2347.70414212
      1462.45071964
      4338.63071612
      3187.67334322
      646.10280497
      678.88929092
      -141.76866657
      2990.85552921
      5019.74195077
      -1037.08984973
      89.71261769
      1194.88483766
      1612.91893453
      -126.80358572
      238.41690576
      791.23598345
      -259.71617146
      762.31708588
      124.85076056
      1786.52228941
      974.66685583
      -97.21296928
      1179.20617114
      1265.61242459
      1254.99424103
      1947.04737022
      1845.62672109
      814.61180651
      -875.82718423
      -2855.83295187
      45.15913750
      2248.74123810
      4265.94732336
      3769.67898999
      -8603.73339914
      6119.05349934
      13926.30718228
      3336.96042689
      9653.50066191
      -3264.15579417
      4730.47318631
      3031.45436091
      32874.01793540
      2995.72433651
      -2391.94779875
      1800.03588842
      2984.25398806
      6549.33507060
      8577.77858357
      1452.78097498
      1888.07087053
      337.43707753
      4289.67285301
      4035.56376941
      288.75766968
      7100.37226659
      -3416.16273082
      2976.90201456
      6078.98710398
      833.83746512
      5923.35052950
      1425.68666057
      718.87764626
      450.96159141
      961.16802353
      1301.40889593
      399.19049441
      1949.59305821
      487.40780177
      1679.12398835
      1152.17400942
      508.81995341
      4771.95618105
      2475.91045779
      2037.70977182
      1097.77971565
      2601.78210987
      2644.60844363
      -893.95563017
      2977.24469332
      -48.58856100
      3303.44492446
      -137.37847395
      278.53049856
      -1434.89225438
      3448.96658895
      1632.64049031
      5634.31760321
      4382.04093422
      11931.96470774
      3067.27083483
      -1959.59736685
      1670.18158732
      1036.82043311
      4136.45531435
      595.93142671
      9131.01023728
      2076.84911411
      1801.81423963
      1811.01543096
      2653.05027452
      3553.42123755
      7698.79090795
      3042.44854702
      5625.95536157
      567.84004287
      -13974.22124817
      -5363.24478145
      4929.84121917
      -1446.19336757
      -1444.67769932
      5689.54607434
      -105.85889179
      2902.39392411
      3389.64027059
      4871.74756777
      1481.48225921
      4655.83390216
      2126.48740456
      3867.76923752
      1594.81842773
      4674.43598545
      466.11582755
      1984.90341471
      1226.53089128
      5130.50765919
      4044.53206816
      710.70294454
      2197.11302603
      995.38350643
      2672.32704053
      4560.08787076
      1768.67795743
      360.16525069
      2573.00198447
      2970.59626941
      4696.47709092
      -704.10841052
      2596.55601582
      2861.63920836
      5793.60555858
      2986.99786587
      2116.96701709
      3512.87975140
      5958.86272996
      1608.33697994
      2655.09565697
      3066.97536458
      -418.63949497
      3830.15773061
      2905.71122224
      -2135.72921112
      2703.03823278
      4413.59680747
      4007.94568319
      5244.40990212
      6787.27867191
      4696.72931558
      4502.36836967
      1793.76276118
      4721.24838702
      358.56725009
      2232.07896329
      -219.63030510
      -3489.74203720
      -2237.82433743
      -1623.36954938
      -923.16612182
      2008.69555881
      956.60759827
      7447.34233922
      11079.78434798
      4298.11442180
      2480.83620950
      1112.48091237
      -1084.90858550
      1306.31240412
      1518.33321042
      1483.09736895
      3786.94326288
      31.07928267
      -21336.21804100
      8828.46921780
      10241.36343704
      2913.54739087
      3453.06758038
      718.13965487
      3623.09074489
      3326.94864759
      3076.12196706
      2277.21251596
      1387.44432130
      4623.28265177
      8426.67030150
      2488.04350412
      14707.17590238
      2320.49570576
      3955.32598463
      8107.07488251
      1564.28045992
      11324.13821100
      7824.54796236
      176.27444958
      9606.44893079
      5339.52898111
      7367.53338649
      9634.37818332
      5518.78758717
      4715.70680283
      3706.83927117
      4608.27211631
      12590.57695632
      2994.92384216
      4530.45989305
      5007.17794975
      7291.68488442
      448.05656165
      7809.13342520
      -764.99895792
      2642.90738781
      3815.35137244
      4328.75496956
      4991.35403870
      1961.88162630
      5944.76277959
      6971.87765739
      2311.93897720
      -1682.58894351
      3183.88434762
      1215.81245610
      2415.14926325
      181.85138148
      4829.23413191
      8655.38956963
      8877.04010960
      -40.26405975
      3794.84168817
      5106.73340098
      2644.29399727
      4168.77715815
      2888.18340562
      5309.75906516
      5337.40337764
      1003.53028083
      2142.05191104
      737.77617684
      3760.80502967
      7747.59410692
      -16161.55176151
      1264.51637372
      -962.41659351
      2181.30256765
      3795.83618433
      -42.09171261
      2648.02284229
      10423.11239278
      1046.61092225
      2662.44781172
      9998.58986541
      3366.90065438
      3825.09024765
      3404.17928521
      5424.55195119
      3905.79615710
      4804.89845474
      13037.94758608
      2599.77029759
      3768.06209287
      4870.31510522
      2520.00837347
      3330.58577146
      1746.75976170
      2247.03268131
      5334.52459722
      -1273.02327842
      1534.79201710
      2321.71593057
      626.24941213
      3654.01361341
      5117.02810020
      2105.21939654
      8557.30092757
      4617.33616108
      5807.56691853
      2440.18451522
      3253.74799742
      8216.10183541
      108.88162671
      9174.11910883
      3792.57792357
      2421.90135549
      3285.50342550
      817.50182548
      1641.24052861
      2391.62221052
      2774.97922074
      4134.31318879
      1069.73264155
      3212.53642804
      12501.39127844
      5770.29740571
      9152.34182644
      4231.18954209
      4730.58748715
      7471.53676038
      1873.52659815
      560.50240048
      1313.10224165
      6964.79110747
      -290.37791223
      -1594.77452829
      -3498.75458020
      2099.39037059
      -18378.22992136
      -5122.03323266
      3202.66827152
      3652.34060946
      4025.96064402
      -372.22298881
      11792.63597179
      5244.77790788
      6701.38956226
      2647.14030168
      4567.85319309
      9190.21988255
      5220.75769541
      16720.30051250
      8209.86925005
      3295.34747072
      2000.72526917
      8718.20050904
      1393.73003985
      2006.30813351
      2884.05641776
      1985.27264574
      721.10449241
      2462.81461176
      1556.35100247
      3261.45443348
      3036.63773636
      552.19860083
      1610.39806126
      1692.49235074
      6003.27339043
      4766.85855822
      3205.37087914
      3186.77500024
      -5356.85143311
      4649.07589719
      2609.86978786
      1356.96694175
      1699.41561985
      1325.19059025
      1870.30266455
      1143.52148567
      2040.58198839
      5618.97783937
      4280.11047727
      3777.58505978
      7555.50030580
      5375.35179522
      2462.53925807
      -2350.76192576
      4003.76080473
      1313.18059209
      1541.72719369
      3831.82993621
      401.61379954
      8729.87651408
      3749.66069835
      -857.06475494
      5718.64867288
      2364.87961895
      7363.69899134
      6540.30116437
      1884.82526583
      1500.50139297
      2373.13093716
      -124.59527621
      -15857.23209146
      1487.00146121
      6213.85005558
      4063.57646828
      4456.35592374
      16720.29282800
      3882.72340707
      12314.37974083
      4480.59635983
      5780.19689013
      13664.17460311
      10888.91608848
      15734.20352569
      14399.61077299
      3794.33143607
      2618.29418430
      5380.59102940
      4138.03223814
      1353.64218176
      420.60510503
      537.69411048
      2706.47989422
      1084.99500936
      2473.09710412
      4605.79874917
      2591.09962428
      6694.74041013
      3768.01840159
      -48.18862565
      2490.53658882
      -6484.00655193
      1397.28324557
      3109.03248458
      5604.29143028
      696.75384110
      3077.08251383
      2934.52148523
      8528.98549866
      2117.65146615
      1547.29613281
      509.19732938
      1777.45809651
      5327.53824558
      7408.07836194
      6059.22746303
      3635.83777146
      -174.27015326
      -542.97331840
      6827.23207519
      6485.61296992
      -1079.89013230
      3083.72992304
      4397.34706296
      4551.98018497
      134.78161829
      2552.95902996
      1287.67423363
      3792.65197313
      3947.11099454
      -2007.61650680
      -9806.31642694
      2505.85140882
      -1156.74671235
      6471.54418762
      -2128.95511453
      3297.24193353
      -1562.85489402
      3004.95672945
      2975.97381500
      142.27502886
      3997.80976980
      2130.16072050
      5744.61767677
      4426.70496396
      6100.91679395
      7070.88025871
      2022.96273318
      3653.00918400
      2300.24211248
      -3350.20080918
      3408.51275453
      3477.86847745
      3535.40652028
      3767.16547480
      1650.23887575
      2113.99809250
      3149.52558402
      3433.26841777
      2310.25664759
      2661.07327442
      2662.46228556
      2696.45117804
      675.07292210
      2706.95508876
      6960.82574661
      6369.98171506
      -761.60231919
      56.69879593
      336.67061875
      3073.00889041
      3377.15928200
      1310.44796203
      -115.09557064
      681.69333766
      383.87673676
      3960.45365400
      79.50999453
      275.03073507
      1219.37705442
      691.99576661
      1908.50255052
      3894.15286731
      -381.45450227
      -2702.12535958
      3712.06806418
      3353.41705332
      3534.00365235
      -1245.24419024
      1717.54681075
      -507.08596914
      1622.31808531
      636.48290247
      803.66968670
      960.71934469
      1058.93823786
      2335.89118416
      634.97476643
      6524.02159411
      2517.07131618
      1718.45203221
      272.40094341
      2443.99869900
      -7886.36499036
      3850.69431512
      959.69327329
      4739.25491286
      3645.85049388
      4376.39250195
      3758.07915300
      9494.97453373
      17595.42888425
      2818.36868993
      5252.47184982
      997.93440051
      739.94736834
      -146.49249447
      1727.73775916
      4650.76732321
      2734.74208314
      2562.91121652
      1996.55698392
      1298.55416546
      1300.92151994
      1535.35349419
      -362.74105158
      3038.18962176
      -134.41535265
      1821.82424945
      2107.12377317
      2048.45716186
      2102.67566072
      6274.81523554
      1720.15476579
      1892.68028112
      2442.26653008
      3232.88751937
      -2946.96100695
      3744.50489797
      4797.11936687
      416.16814841
      1245.14389158
      -138.27289158
      955.42031942
      592.59387260
      -2773.18551627
      3365.82608929
      -208.39954184
      367.79805895
      2836.27341867
      3765.44270597
      -107.78247897
      -453.16069653
      2177.28376692
      2761.49261569
      3205.99732199
      -625.08566712
      2455.77639062
      4338.44104774
      4760.70761032
      3446.70050187
      1652.93275076
      1624.84759730
      2951.24831420
      1536.36412174
      871.07031611
      -1904.89303828
      -809.29265906
      5758.23171418
      3075.01083260
      7568.96966218
      16858.58459695
      11077.64783100
      9296.23160306
      3602.58068339
      1803.72410651
      7111.06240444
      4227.39244995
      3120.33278840
      4921.27804123
      3068.90740833
      6941.79154769
      1928.22141455
      1920.60221497
      892.92506432
      1542.18029705
      926.06193656
      534.42375024
      -290.98809852
      1755.71147658
      925.93173082
      973.79987534
      5315.52817710
      106.47649840
      2865.18538041
      344.17854125
      3478.71194997
      5192.97425458
      2474.22390123
      1169.15590659
      1289.09725886
      1320.49293386
      990.99821382
      3667.04838543
      -618.97758393
      1374.28011550
      530.55383108
      479.24325043
      1663.01508959
      395.05361076
      -32.80592981
      5298.81787534
      -1095.13549541
      -95.18591453
      -5913.70855677
      790.28827189
      219.24714619
      2348.49117419
      -4616.00448267
      -4017.49448700
      -669.86678606
      548.90330664
      2565.31265250
      4623.38722232
      2993.58769008
      3827.48369827
      164.62479546
      -356.58291254
      5147.04272623
      212.51701958
      2834.44765806
      -8454.06377398
      -456.89389463
      222.23855294
      -2163.80511858
      -28338.34729544
      11963.48040027
      5696.77659700
      2850.89265211
      14056.14717793
      -870.37618385
      2630.93833637
      9284.27138294
      2404.61523862
      3929.93429679
      3098.65739496
      11116.22374211
      4230.34206432
      3558.50241019
      2377.87682046
      1565.97628492
      -15.47479899
      4442.81990766
      124.15209891
      4681.67655806
      2393.37370743
      1802.42261899
      1059.88475997
      1978.39475084
      1595.78295204
      3560.44161195
      2746.76485268
      5366.48071538
      3901.78616035
      635.88598246
      1198.58107675
      1913.52196985
      1063.37851406
      3354.05708052
      -4184.59911735
      758.26610180
      -290.75788455
      652.55226063
      1065.62068273
      2247.02611828
      953.61803256
      67.72080215
      1412.46819261
      751.01421784
      -334.54021346
      1449.99743096
      34.46638797
      -795.09917002
      -551.65570895
      822.55578012
      995.14952202
      -2818.70069626
      697.16910056
      419.30444835
      -4710.74233707
      -395.41633412
      -553.34671745
      -815.20942419
      6099.09383325
      4110.54286841
      -3250.30930875
      -709.42939828
      2546.28925538
      922.88227766
      6164.91520369
      -513.88984087
      5529.36774568
      11261.49209214
      7169.63576257
      8652.04318409
      249.96017293
      14951.59231824
      3941.52889611
      -1140.54308998
      5722.80828204
      285.39007272
      4960.36580439
      3365.17588271
      2810.67440953
      1878.33264137
      2607.76308869
      1576.39743178
      4034.47146994
      2692.94190871
      1775.48900896
      3000.39539262
      272.79905190
      3798.12311271
      2451.05267520
      2341.66859336
      3084.83323932
      3076.57057640
      5723.60471390
      1634.88870469
      3242.28542678
      3603.53987054
      1865.01440662
      1544.57808746
      2095.15565577
      1235.41082019
      736.65110033
      2528.05834535
      -198.23302943
      1153.31011707
      1116.95347189
      -3199.17534577
      2065.55460397
      2064.42782797
      -824.14059804
      -284.01712142
      -3673.54690702
      2135.25472757
      -2478.38235854
      1508.60968142
      -114.51905289
      2228.21554491
      511.71066186
      733.41622774
      2958.57779154
      4775.85876290
      2388.14962118
      -2044.14434406
      -3672.20562127
      3348.58579593
      -109.63797227
      3532.61241907
      6834.97038628
      2278.91711238
      9817.69253943
      3037.94750446
      -50.41217020
      415.16879641
      1739.78452531
      8768.21235486
      9516.33930413
      3448.07859456
      4478.47011353
      4096.24499941
      4343.27015143
      514.87048802
      1679.76194571
      -2889.81269118
      2157.07683286
      2984.62634914
      5561.90994502
      3287.20406872
      4242.78176928
      -2206.06670658
      -723.51576792
      1687.30883176
      2199.12922880
      2457.95804701
      545.66912046
      3741.69236324
      3073.90847980
      3051.58061677
      1711.19770288
      5199.56432032
      2128.06936493
      3779.84440161
      3020.44045223
      2107.35930263
      3579.62429097
      1975.92974579
      2544.38850129
      444.69213721
      1325.85505012
      1831.47825577
      366.24058508
      170.61040451
      297.40361138
      -244.78623212
      1042.28265456
      352.95686469
      -868.73314203
      -1008.40132761
      -1361.35468117
      239.41931623
      -1607.43662519
      1698.96680216
      -6.57516588
      2765.46942752
      1082.22828734
      802.94369097
      -564.42090274
      880.29504013
      2745.36972448
      -607.35066466
      2525.87029331
      6622.58562814
      -5254.49788449
      2716.63102720
      1390.22152939
      4882.45585400
      8734.83819714
      2811.80800208
      8737.97309111
      -2611.27214980
      -30962.88851667
      -5678.75686574
      7790.74347659
      12945.12013741
      7804.01787977
      6881.66045740
      2525.26536842
      -1512.27468003
      170.95935173
      8451.71082506
      4567.79783928
      3449.30464628
      5962.32849903
      1459.62452438
      1663.23476633
      5523.08254291
      6716.99612450
      1882.90169736
      -296.93204775
      1762.20270471
      640.66578976
      1799.28726612
      3036.29853281
      2049.63959363
      2104.08377143
      3670.65272339
      5454.03479180
      5043.32598010
      4640.75192907
      815.54031301
      2020.90620927
      1590.01798767
      1813.26936943
      2352.71689176
      3806.66331819
      1656.79399247
      1260.12896561
      1548.54282352
      843.20752446
      2737.89373825
      1627.73688847
      86.10809692
      1891.25448755
      843.83817572
      -149.12245317
      671.91357282
      -995.10616302
      466.88242310
      -4269.12458029
      243.28336359
      -301.62411055
      -5122.93041425
      749.76549913
      -1320.31498999
      1867.19077552
      3425.39498950
      25327.20897177
      -2716.59497776
      -18170.49901944
      -5098.53349916
      11687.25125965
      7693.64389268
      12985.98961428
      2776.51875893
      -154.14247695
      6460.32425184
      -19317.15986296
      3439.32525334
      4623.42498613
      6551.36039801
      4334.85840518
      2819.79035373
      440.02084831
      14333.38837568
      2267.95979268
      1847.23989302
      9524.83934085
      4581.49996467
      -2770.85880653
      3701.18014879
      2565.82590287
      5028.97892260
      1825.26097850
      4647.58399688
      1619.88437064
      3086.50648165
      1254.20622034
      993.04841358
      55.95842361
      2429.38709089
      4318.12749617
      1282.59113750
      372.42307935
      2887.07584632
      2107.45690950
      1165.01282200
      1789.12532867
      3255.03347660
      5009.42805887
      4222.13378064
      4396.08749461
      1705.00502249
      1431.20880579
      1117.47614545
      3477.94142095
      2899.16550221
      2343.26955240
      2759.20624897
      1206.09772541
      1164.19895604
      44.16294120
      1145.01411269
      2524.20651064
      -165.11063993
      -745.09769842
      -1473.90283412
      2258.55959111
      615.88961563
      -1393.12853796
      -1469.35653358
      866.50611090
      9345.97176880
      2910.48791811
      32187.89519532
      5706.26987890
      -301.20797692
      -5407.29814588
      7465.11309629
      3982.13507476
      14362.16634387
      3594.62843630
      -615.39173226
      3211.75720808
      8413.11894323
      8765.48408224
      5468.38663355
      5014.17211966
      -37.93962547
      948.94799741
      6167.74337098
      -705.86789654
      4752.82119134
      3879.39934507
      3117.37297789
      1919.82973316
      10747.15830125
      3200.73912284
      2159.24611210
      3057.78830818
      920.37032522
      1194.12820834
      1337.19485129
      -327.24821301
      2446.93700627
      1564.45755921
      685.28890048
      1473.81117668
      2237.91113642
      3390.03833921
      3566.40942955
      9540.81439018
      2598.63870646
      2336.20131726
      526.17602972
      1442.23467772
      2120.95548551
      1308.55057679
      1142.73931869
      928.55716109
      1688.88134247
      728.44544112
      439.41111893
      1433.63412594
      2740.14021899
      920.75027906
      162.57493810
      -2593.67661822
      3330.20883223
      -3381.46144397
      -2060.46824247
      -467.31118853
      2171.92336033
      7159.15394248
      4847.48506961
      1117.25720874
      2406.43151652
      7098.03206974
      -2166.70982894
      1442.17965449
      -5645.43147477
      -2005.58119575
      11921.97997829
      7803.47698030
      770.69391435
      2644.87392130
      12117.57469803
      7693.39292246
      -5539.10976267
      474.79231344
      1351.07896724
      1822.30076531
      8935.38623455
      3281.87495641
      -2607.53954139
      8891.03705142
      2721.62020805
      2961.21915712
      4356.73475189
      4070.84598820
      2277.31059841
      3502.34445140
      -3864.69617528
      2117.14473874
      -4057.41361388
      8607.75770885
      -2043.21751664
      2298.98629853
      6737.01532683
      8029.63958520
      3132.47723938
      1641.19741513
      2200.48537771
      2595.85982237
      2127.49798249
      3696.09818591
      1806.76957503
      3432.56039273
      694.30986644
      5223.85860532
      331.99255717
      -4048.75723619
      -2081.99676474
      -1203.83938860
      811.58701062
      3611.79185555
      -497.84349107
      1050.56873161
      495.84956374
      2262.51019486
      1361.95230675
      1203.24444644
      -233.20204173
      -1103.92669453
      -1348.95930998
      -464.01349778
      157.78436757
      -2181.51193894
      -832.30061739
      -2140.79512047
      1651.75242233
      1375.38276364
      96.31992427
      -2088.68600292
      -6079.41709086
      4434.46290824
      6277.05106708
      -4415.73999329
      -5881.58772067
      6123.96408219
      6202.27375770
      1456.29466696
      4558.32695716
      4097.77710036
      -8366.37139958
      -40161.08078057
      9394.42383534
      3740.12378398
      4281.67562753
      4742.17260309
      5033.47520269
      3415.85299151
      2846.12510212
      2995.56190561
      -1830.19194000
      13430.74233538
      354.54249591
      -2243.49106657
      3890.87525284
      2876.91037633
      938.76472997
      2902.45244498
      4400.43388733
      -126.24408705
      703.21604087
      177.56212460
      2228.67956447
      119.14877974
      -2667.17173539
      1389.04714065
      1960.18444166
      6055.98413620
      5389.46825283
      1666.15606631
      -680.87941669
      3239.77279429
      3427.54600149
      42.74520295
      1606.94961628
      434.71580354
      785.69538743
      -2009.50843903
      -3417.66132241
      1724.84044622