<?xml version="1.0"?>
<VTKFile type= "UnstructuredGrid"  version= "0.1"  byte_order= "BigEndian">
<UnstructuredGrid>
<Piece NumberOfPoints="5123" NumberOfCells="5123">
<PointData Scalars="Pressure" Vectors="Velocity">
<DataArray type="Float32" Name="Pressures" format="ascii">
      340.97456964
      -20090.25205935
      -24754.24928225
      -25493.28008765
      -24261.99582305
      -28560.32273856
      -29272.80775739
      5147.39238876
      3566.58614157
      -23569.16128140
      7328.36510084
      -22140.43487678
      5694.44327865
      708.32986095
      -20993.64946475
      5769.91976642
      2864.90548898
      -27025.94562458
      -462.54701961
      -996.05744997
      -1117.52357007
      1607.31599503
      -511.38441294
      588.32128058
      308.02072588
      743.07248560
      101.47532610
      -15.77898019
      -65.39428995
      7809.24917737
      -816.07920235
      1432.86948302
      -308.74495240
      -2307.23083930
      -3098.79635493
      -400.45182958
      987.37769898
      358.96738788
      109.31079295
      638.13262233
      -547.42330046
      -752.61208279
      676.41786214
      -803.52022586
      398.17817906
      -207.17542460
      -1204.72125824
      -475.98259783
      -85.26451280
      659.86866616
      -14.18856991
      -555.47490022
      -477.74382194
      82.64682279
      -546.64125180
      -560.27055933
      -1019.74386175
      -1744.54888856
      -350.64689168
      -1693.53387693
      387.34361258
      -1239.03396212
      -170.81698036
      524.94854864
      16.74870263
      1007.30190439
      13093.37167652
      13039.90592988
      265.11413195
      2497.44209984
      617.80558996
      1332.66159946
      2701.72435395
      5349.43699600
      7651.77242584
      2078.56689962
      1807.21385199
      2045.47105331
      911.71813481
      911.12258517
      4346.22406064
      2760.39647876
      -347.04007338
      -593.52886555
      1167.40774214
      1035.96653039
      2034.94864580
      2322.15276524
      564.18321869
      3553.32146122
      -6141.75462702
      33.77569232
      5308.90101415
      3607.97090895
      4762.58731040
      3491.80689448
      2765.50340187
      -2800.17849295
      353.93600113
      1467.42502568
      1538.29329840
      69.09214016
      1579.92576849
      999.84323476
      11087.03751773
      -995.61397746
      -940.28518381
      703.21855146
      -1466.34327606
      1460.84481288
      -1733.18267837
      3134.43916225
      -651.66750540
      1002.04994744
      3548.52160765
      3486.77420548
      -404.98379109
      -681.37913128
      2035.62357204
      -2961.18445114
      -1275.71700021
      -1224.09503267
      -1319.66094394
      -1671.33881551
      -815.15846992
      316.16192922
      -14.49262101
      -108.42996885
      314.74789494
      -135.06715053
      256.89455857
      280.97104592
      -24148.52814249
      1954.96398299
      423.04812734
      1071.16639008
      1026.90826411
      3430.90920349
      8179.28146609
      3105.33033627
      3958.48404984
      3685.97082017
      10834.88957981
      4215.03198830
      720.61955230
      3335.55130054
      2664.17922603
      3166.70623543
      5926.19448681
      3058.28035495
      4341.20199751
      3423.21733874
      1974.05353557
      2590.09923017
      6680.28529871
      1136.32608334
      131.00076319
      -2524.46344527
      2949.07769233
      971.30019562
      2279.69564535
      941.42649471
      3811.75185440
      150.56754808
      6032.19791276
      6373.86974847
      5138.18142070
      2971.83028455
      1722.55325862
      477.63721788
      110.77180941
      -2672.12871275
      5579.10412219
      16.85356475
      2174.10705398
      5310.20172079
      -889.29850751
      3937.54484016
      -339.80755128
      417.84208327
      -673.45214828
      2831.56635503
      2051.32109200
      5454.63736981
      228.97480697
      458.10533569
      896.19258377
      1434.91679593
      -1057.53312285
      -456.01947654
      1261.96470064
      -1709.15419381
      584.41547679
      -252.89600468
      771.08057713
      -1265.95725640
      -179.15727733
      834.89639985
      -18716.99888393
      2739.10816947
      2921.28564667
      4884.07412948
      1439.12685618
      3335.81924543
      3800.65026101
      3085.20034541
      2309.69783978
      1762.75940097
      2165.03286566
      4318.65182395
      908.32949920
      1783.42432242
      1221.42021306
      3435.52522812
      3434.34469721
      4039.15617003
      3788.44305868
      3836.72206828
      2147.61731107
      2453.42940866
      2676.99615259
      -260.09256061
      2947.56288299
      3928.00044189
      3779.53488134
      1982.79113783
      5432.41256110
      6438.02794196
      4422.36712938
      6023.63330340
      1522.85813434
      -1479.51812038
      5064.88120903
      -1585.78682431
      348.34601405
      576.41452330
      111.57530353
      -2305.40810465
      664.03038745
      -1982.96916991
      -3434.80417261
      2236.48275143
      5133.21255513
      -4182.06314162
      190.48284598
      701.70831701
      -359.91596085
      1435.91851641
      915.04830762
      706.71330601
      1964.94075807
      1758.12636761
      -184.23246262
      886.08241874
      -323.15612580
      944.13062245
      2328.75351286
      1470.03257685
      28.76920439
      -94.63372397
      1053.74527566
      -1077.86567094
      -1110.03486698
      984.97289609
      -27399.67254656
      9630.58674808
      6723.95623780
      12591.45878736
      3936.35781807
      3799.14727820
      4223.39361637
      3538.05045348
      5199.59505600
      -2666.45357430
      -747.06160128
      871.89347579
      5313.21464186
      1817.97880414
      8514.93425531
      1432.65087926
      1852.07133993
      1693.56577247
      2056.27803816
      6064.64130770
      -735.95162338
      1634.85978851
      6956.95042267
      -425.84433032
      1593.35299400
      1419.25235273
      2065.49113242
      -398.19878446
      6658.28490619
      -1307.20268803
      2541.68225700
      5007.70599715
      6356.84553915
      -4307.01176168
      2598.15595601
      2588.61580479
      -1756.73644529
      1178.88049698
      4130.55432613
      2689.42593951
      -193.26898227
      4109.15712837
      -3786.04929083
      -124.77102069
      3588.28195748
      378.36262520
      -1778.98772308
      3842.97912165
      1434.92470135
      -117.62291098
      -2794.70717143
      -1183.07802157
      -1692.93464286
      -365.53130119
      2589.27158920
      4266.01787890
      1011.21133178
      -372.90322696
      1450.84197875
      530.80371906
      716.99112817
      -495.63689933
      -1064.36003308
      -1636.11567233
      535.70713891
      -555.24889452
      -20980.90566408
      5674.83363801
      7838.85511057
      13946.29846294
      5299.30634080
      8069.78480053
      5677.34155526
      7921.86465962
      3480.47257958
      7942.65983679
      2557.18665229
      5317.36287151
      1484.17371517
      3079.24839957
      1248.23276761
      2720.69127786
      2131.72442640
      2448.30602450
      4123.28454322
      2872.43899177
      2935.06247516
      3051.12516437
      155.75759617
      4102.55017158
      6050.41362164
      292.27014348
      -2906.92667971
      3837.99878241
      1558.75557894
      3459.89698508
      2260.19163680
      -494.99651990
      4423.09818033
      3376.26024997
      -2012.22372096
      4216.74684115
      2256.04549571
      1680.61053745
      4089.61342864
      2863.86606081
      2074.71677065
      226.01179342
      4707.97866198
      -122.80191486
      -54.34837671
      1747.94906423
      2351.34988426
      1450.48093157
      -1024.20143350
      2091.41281602
      766.10920616
      -1402.54640462
      2813.49828644
      -4725.55221607
      1635.95416387
      -3015.39217196
      1557.02922528
      3943.35453819
      1171.76908571
      751.64977631
      -11.81715653
      25.76309866
      2258.12788069
      -2469.90010522
      -410.72478305
      1575.89897482
      15702.45016475
      5972.51912320
      3671.16906837
      3566.33765278
      4688.19844512
      6109.12230032
      5912.31207161
      7878.17254288
      7053.31449887
      2117.59578759
      2290.55178208
      364.49427448
      -3215.01902058
      -3840.24130200
      -1190.62736201
      1517.64401914
      -248.23844287
      214.15170385
      14610.16428075
      -950.89600184
      1830.58718413
      3636.59816730
      2154.85514091
      7345.87730778
      5858.21450336
      2447.76283872
      5695.52047534
      5034.45452673
      -2403.18735537
      973.30554098
      6308.69750156
      2736.94609475
      3519.74875685
      4819.34254597
      1192.40508481
      3501.43128223
      5812.45412655
      786.29642688
      3743.64064651
      3899.07825789
      885.78828981
      1960.28614383
      3526.15830663
      -3123.55892979
      851.86507471
      1121.93210690
      -560.78145684
      -1928.55002992
      -3892.26413072
      3561.29305417
      -1132.20971205
      -731.34629637
      3558.67234808
      -3279.64282429
      752.83578219
      -1962.93021511
      79.49519728
      2052.24943357
      2645.08375253
      1994.47227977
      1548.92904647
      308.41351295
      436.84327326
      -3519.61257716
      -2911.86524795
      -1520.73911489
      14199.34755429
      4844.22478792
      1605.35819022
      2918.05829946
      16607.53362843
      285.02071019
      1989.40897304
      3111.95446178
      10135.14401748
      3690.24467925
      4257.85273121
      3772.84877766
      3006.84863079
      -261.54513157
      3599.60406077
      4170.99823634
      5202.97459238
      4155.97051344
      3454.97615062
      5817.79541620
      1684.94103471
      2970.41671690
      1206.04761450
      1800.58245159
      11290.91550827
      4145.18167033
      1401.32832701
      3599.95497829
      866.50853054
      -780.51050279
      -1473.73658366
      -3086.76086922
      6616.00866279
      3230.94393481
      2743.22191187
      2063.69066333
      5159.66585429
      873.14288256
      -1642.10013685
      8102.61291564
      3021.75836596
      4654.06950230
      466.47167056
      -1877.48615781
      2741.89516056
      111.49672240
      -830.58402209
      2978.02738768
      5564.82766637
      2107.99959725
      -6226.73445635
      3529.89446580
      3072.76829574
      624.97636188
      -1887.07007429
      -380.58330044
      1786.39065894
      174.13572392
      269.66364307
      1932.88967683
      369.87543978
      1492.36808312
      -671.73548332
      -2016.91658060
      156.89573901
      710.26606890
      -21336.21804100
      5476.49188154
      14595.73139296
      12182.35153142
      5194.25779068
      6998.01852334
      5780.27311406
      5335.37683446
      2970.40510923
      3591.43621733
      1531.29718210
      3013.03760602
      7669.25779108
      3598.56054558
      1826.77234591
      10012.00468318
      2968.79045506
      5807.91156085
      -94.23475634
      -314.12079532
      6413.70730372
      1970.84516843
      7885.27733532
      4089.93517882
      -229.87666242
      2827.38596396
      2696.99661090
      2069.87460017
      1172.00199943
      5263.76837865
      411.59467650
      542.92992568
      1818.73856146
      2794.20467119
      6677.77751854
      1486.99626522
      2126.78224560
      2419.57395004
      2325.76357414
      1806.69730193
      4587.22354657
      613.75860151
      720.24132533
      1926.14642959
      5127.30787934
      1355.71549639
      4087.23539996
      1.52037754
      2496.65828662
      2041.79548665
      2552.60582569
      -226.52219848
      2184.88391991
      232.00087837
      158.05853705
      127.88451514
      -853.75310226
      362.56901799
      -685.17234358
      1169.58764374
      1325.03897689
      1254.44100881
      4480.09036570
      -3567.67160389
      -145.63641878
      -6387.76366308
      13937.77426572
      8139.60567632
      22546.46755643
      6876.28997103
      5042.39072184
      4656.51704733
      2956.64870137
      8388.46189896
      3211.20455796
      1181.22730833
      5333.38613882
      8492.26374413
      2175.86061930
      708.38221404
      8739.33774874
      4618.40928926
      7651.83698512
      4590.14101591
      4700.68445628
      6602.77023081
      2567.93020322
      1654.38863763
      1253.11546173
      6370.30584330
      -149.81888813
      2881.22689982
      2385.46842100
      3370.07260665
      4969.83147849
      1679.50620364
      3471.94988077
      3479.62797347
      4452.41025068
      2283.37668522
      2474.21873873
      1973.15034920
      827.93468565
      1979.53611255
      7580.93497727
      1075.59363236
      245.68983148
      3951.06184502
      2478.56601044
      1749.56927760
      3002.43591548
      2176.19821994
      4274.25179803
      -112.84713947
      2955.62376059
      1265.91384697
      885.06986330
      1039.13794334
      2345.78144251
      1306.66318519
      178.45464463
      429.63792938
      -903.85100632
      2225.12742420
      -1053.64678774
      2868.83210444
      3369.04136020
      2347.84905559
      2493.11686449
      -1469.86224947
      -531.26145459
      9.27966279
      -18378.22992136
      1448.03257558
      5461.66839987
      3707.58925822
      3258.60313353
      4387.18475265
      6103.60336667
      5864.30469947
      5173.64987826
      3188.11848475
      4624.93910467
      4178.96721036
      2591.70565645
      926.73049278
      1848.43360334
      3771.22239280
      8777.47875827
      4678.01953990
      -718.68316755
      5172.19772862
      302.20496380
      3639.04841392
      -410.83535177
      7040.50667137
      2625.12447070
      1752.32155093
      3167.70671790
      1889.38890204
      7265.33277725
      3426.41764639
      2341.89983360
      4125.23208688
      5666.45496593
      4061.67727725
      2185.23503551
      1076.57199812
      5226.13824881
      2267.53216191
      356.49213554
      4945.70515987
      2861.09206261
      2633.95872212
      -992.72570014
      759.77476560
      1479.14339500
      4319.42348015
      5072.02317811
      1433.56107162
      2255.32340610
      1687.28474905
      2615.46202434
      1599.50511256
      2959.19104859
      3548.84996343
      -791.30792733
      1033.89057546
      4139.77035843
      1123.42144560
      322.82802329
      1620.63846915
      3106.72565482
      2466.41191655
      680.83646712
      -1154.38138404
      -139.54267335
      1486.83416294
      -4067.23119237
      5073.78070371
      11025.77715847
      3791.44329693
      5969.75258375
      3316.29917443
      3705.98380472
      6380.99115713
      5902.07730767
      1423.88819009
      2656.76568115
      3126.55264927
      7220.59178116
      6171.67734759
      4632.10739398
      3598.74847565
      5379.31779529
      5460.20695980
      3724.48944885
      346.89983562
      5394.81592123
      3804.65586831
      140.60522014
      8933.94762819
      288.90377577
      2594.43001693
      1153.70408998
      2838.10482126
      247.23733360
      2964.55350538
      2996.64622532
      -372.12115760
      4018.84732581
      -3438.02251529
      -1426.23027673
      -6408.77547920
      7212.77628276
      4851.45206758
      5822.96000360
      3082.78435867
      -513.45817281
      2190.62865447
      2668.17383356
      2451.93071707
      2138.74033864
      6517.26440256
      -65.65936666
      3135.89712522
      2592.01612322
      954.93112140
      2129.49068634
      1688.40911733
      2662.24698848
      755.79907169
      -625.52993719
      2492.50130653
      -1166.79534624
      142.17053302
      2152.69870039
      338.47987420
      1109.86658192
      200.55981577
      -3359.99430207
      1092.09526659
      1904.77288552
      1416.87587200
      26726.16700800
      155.26274751
      -1943.32179111
      2497.54216627
      7125.57550250
      -447.62385580
      11964.08213895
      1127.93254047
      2192.93288312
      3058.75529566
      4721.43967152
      -83.79038774
      4105.92143668
      1533.36204212
      1048.28478000
      9986.06029458
      1037.35214141
      6639.58711444
      1474.45276034
      -1355.17099246
      3116.77911145
      2610.91980860
      2433.40488686
      948.11341237
      2024.10866531
      4720.45871170
      4538.85950591
      1771.71689237
      3391.25358079
      3919.68830755
      -2519.94204847
      7689.45486554
      6484.27577870
      -3164.08566081
      3854.27630102
      -1828.22812359
      3252.66737943
      717.27637716
      1022.44258290
      -616.70560219
      360.00991004
      2721.82568767
      1588.50201225
      3449.72135823
      3685.31455595
      1761.79475740
      29.11755462
      3274.86457491
      3758.05912997
      2702.85731336
      3342.37466610
      1559.08223111
      2000.25957598
      1172.68098529
      1739.81966722
      1239.12150836
      1649.76657864
      2635.17640784
      -450.33220535
      -1310.53338634
      -41.83883117
      1867.46121392
      -3562.39341014
      -590.27732947
      697.10696074
      576.76016916
      -4946.32056681
      4717.30847561
      3946.57302663
      3546.36474517
      7008.74184164
      4624.26351596
      7528.66068733
      2003.10841651
      6133.29564465
      6805.82070456
      1180.87192340
      3095.35523917
      -85.38399709
      1797.41902110
      6574.71166732
      2164.38032181
      -535.18574198
      591.55334043
      1252.28370667
      64.82184163
      -439.56439608
      808.86173287
      7431.62051561
      2714.48654281
      -1663.98625632
      1238.24330687
      -3054.49339867
      4410.90603821
      6302.97134764
      6314.01050803
      3185.65521479
      4678.37231455
      7193.49056249
      1141.22116250
      2442.08560512
      1114.92210222
      4025.74029293
      4278.74875572
      3014.40249424
      274.76058788
      2592.68668797
      -1613.36328570
      4631.21716925
      3110.92709932
      1729.62774498
      1479.03008535
      2364.33041353
      -209.37925308
      905.45144839
      1936.23055101
      1004.64732384
      -63.08684468
      -19.78324282
      650.30772542
      316.37597820
      1718.31374220
      2920.62542642
      3582.97531771
      514.57793741
      260.50662631
      1599.92454185
      487.98660780
      -181.01796527
      1594.34925087
      217.89155489
      32.43421381
      11247.43927854
      11440.12167838
      5858.96477800
      1799.62819205
      6278.99825928
      -4315.36746258
      1758.87592127
      23684.64796834
      682.58506668
      -3873.10607436
      3495.10883929
      7614.18292869
      -1039.34221929
      4712.21329712
      3179.48661540
      4037.31138885
      -206.29690933
      1910.29051220
      4175.45540190
      -3925.86661865
      2511.50520362
      361.50596230
      2816.14500466
      3507.51861316
      710.45955986
      4783.39895767
      -504.98750314
      5126.20418863
      3606.55310015
      -187.80653208
      5604.60189651
      3542.61491628
      -707.18322500
      -2842.22915496
      3197.03990160
      2388.59216171
      259.27418467
      1321.18216982
      1623.39493213
      871.31125882
      1913.01491377
      1218.37558736
      1442.91504855
      3944.43155632
      -476.33599984
      -634.02703935
      674.79373912
      2800.46321783
      793.32422734
      1308.85966045
      108.04928856
      876.64911024
      -739.75545544
      353.40083327
      438.50643322
      765.65172441
      782.36003239
      783.94503544
      508.33993611
      -989.52436711
      1164.10025864
      2211.67422932
      -1192.30902029
      993.22624022
      354.11011712
      263.12207841
      -28338.34729544
      2584.65476976
      2502.64728513
      2354.58784875
      3111.37163074
      691.97102057
      2588.89787168
      2186.73700205
      4017.52301376
      11870.60490611
      3797.20491342
      3761.21727469
      18443.53935374
      -374.20494438
      2671.58923941
      4644.05116212
      253.17802676
      30.35583745
      703.96599054
      5494.56203340
      -1780.56148920
      160.77281781
      16.02368095
      -3181.69713570
      -1742.87356167
      3270.17068526
      -5.98584680
      1334.78705802
      3684.97002486
      -1552.71871058
      1870.23176655
      -962.03879399
      190.24233255
      -17.57757873
      713.56549142
      3462.40182195
      1968.95079234
      4957.25785512
      -1012.82812349
      3253.70543730
      1983.22795485
      -199.48798073
      573.62490130
      2661.95430341
      2706.06096751
      1492.11540414
      4563.75964035
      776.32775026
      3617.56807587
      3647.30723138
      1790.84161843
      1235.75271081
      319.91445249
      -78.70826907
      2638.36876943
      2538.99653805
      -123.09219779
      624.43263041
      -137.34264136
      1140.16403672
      313.87814141
      -54.36610546
      -358.81743367
      191.16218984
      392.04086400
      377.10604228
      5534.62987977
      2516.57283659
      1732.30325640
      7184.77766700
      -1288.39184035
      947.83565849
      6628.41555522
      6141.92873066
      -5919.66644439
      -189.29053894
      6648.09591622
      7730.36001650
      -1242.16757197
      -2432.32651113
      2771.74407205
      4543.93191142
      2375.75355138
      1916.26833674
      3292.98061473
      1726.21154480
      5749.68371135
      659.46510848
      -3622.91183731
      200.75030353
      8553.91750853
      2484.23533840
      4602.65352952
      1489.92984480
      2178.08978676
      2421.17189217
      1743.22323652
      -2185.33327909
      1479.06186466
      3234.02850452
      3583.23746443
      -2998.87601724
      -528.02292872
      1029.49066646
      2090.34057110
      3151.30061405
      2483.34172753
      -1939.42920578
      37.93546038
      -520.51409152
      1314.26001169
      -728.00170749
      1363.94083480
      1395.67781576
      -894.12782618
      1242.93190095
      2501.48851142
      940.58027236
      -120.84374168
      -2103.90650546
      -24.16104798
      689.88206941
      919.13490872
      1417.34134157
      -720.26681404
      91.30155600
      568.79372072
      -663.40493435
      -75.78551235
      475.19397539
      18.86485463
      49.49113699
      7651.33426456
      4390.21768678
      2728.66877692
      6002.33218294
      813.91898678
      1768.52069066
      3448.15200315
      -11891.38674835
      -6451.69716088
      4476.32974205
      -1020.31026848
      3386.45260885
      1977.90291922
      7831.84297657
      436.74263019
      7654.30578825
      1104.52484650
      -145.37681587
      7426.65989158
      1939.20246038
      3301.39945588
      2762.83680231
      5812.52339944
      -1919.89164077
      6952.17362136
      4401.49853126
      12570.25732141
      5030.21048414
      -546.78741727
      -874.19872627
      1967.52929860
      1264.23150707
      2233.31130669
      1372.59039561
      2822.30052204
      5120.65179183
      2959.91959669
      -64.80449416
      -88.33054701
      -4415.00276620
      2027.95995167
      -1174.31713777
      -791.19308540
      1131.21307803
      1811.75709593
      2486.83585643
      77.17766409
      1285.23915792
      1181.61116837
      1328.43037979
      4036.81182997
      1205.04406476
      2475.95815277
      1262.19689642
      789.21086714
      1046.93763439
      -267.93821842
      774.98144475
      1823.95496070
      1095.88858966
      873.70886679
      27.26460231
      103.53987348
      -29.44318832
      679.91469738
      -20.47275868
      -30962.88851667
      5520.19485738
      2068.88288054
      1985.24265034
      1901.99092528
      831.47887142
      -3086.04765090
      4727.74407500
      -5086.32735682
      1802.50063693
      3280.97484635
      8721.41234081
      -4121.85233473
      8165.64211745
      8870.52580546
      3224.02669997
      2380.60128459
      5160.56683530
      -3672.80956474
      -1177.77352156
      -2074.66297923
      2674.67300055
      4586.51590876
      -1907.13584508
      4914.94477723
      8308.85288651
      4552.07557716
      322.01637765
      107.70930924
      4846.42504484
      -3434.95012540
      5396.80172878
      1748.35094892
      1419.33294998
      5881.40163290
      1426.82241782
      1348.93890459
      3403.21828748
      -3491.50005247
      -4246.29966210
      -4957.42671703
      1315.49655280
      -29.62609246
      -1416.53223662
      3273.62499690
      1084.72873181
      -331.59828101
      -132.97054380
      923.55409556
      3649.83846644
      2807.08698121
      2637.72630646
      -668.78406258
      64.94526241
      701.60502190
      382.81457702
      222.13990859
      862.86652857
      280.20307660
      -142.65662748
      -705.11194456
      -526.58177699
      -177.73388937
      -329.85678968
      473.15409732
      -62.33099507
      -19317.15986296
      11783.71169707
      2031.77946688
      1998.52358572
      -3269.56962535
      4295.30747163
      2483.29942398
      3253.35909721
      2898.40699078
      1152.32271483
      9781.89617447
      5072.37859870
      -3237.43842208
      5963.51950876
      13768.44149035
      5314.75012555
      -9071.69616674
      24615.49090067
      844.65697301
      3577.64127345
      802.22835215
      6086.79336250
      2467.99486346
      820.47254719
      3383.77262507
      6824.09548880
      10860.36873624
      -1070.92362731
      13931.75662019
      2758.99376673
      4399.84016854
      6765.60773504
      3150.23580005
      8284.13147292
      9744.10178458
      -4885.02214023
      7785.14781112
      1334.70777967
      -1060.69717256
      1479.89551788
      4132.62997885
      -777.82786617
      2158.03519052
      2101.59561916
      364.17005273
      -944.42482789
      5459.46223192
      464.96275076
      -2320.68079230
      2298.41636372
      2588.99027561
      2880.10866729
      513.55490738
      905.97074981
      3226.76854087
      -1048.39801878
      1579.16634320
      1435.23878226
      978.01858955
      -1109.54636556
      31.03803181
      -130.92038270
      516.15075038
      -416.21971530
      354.96446757
      -269.25642566
      12665.04510684
      1613.37392492
      4677.34767780
      5629.94337611
      6142.05216181
      5302.08951889
      3283.00358830
      2461.28419017
      6478.92442843
      6338.30067403
      -109.87080801
      4619.53322084
      -4803.33788356
      3510.13892020
      2313.97915513
      4889.48370367
      15902.56000144
      -3340.30540961
      2631.66773012
      1759.49005999
      -825.72014702
      9925.45498157
      1574.04529252
      9086.92047491
      -790.93746220
      5677.30894545
      -965.31155552
      -1185.30735666
      3800.45340949
      6196.83365822
      7692.30193485
      -2295.64168720
      6508.04864670
      4124.29250623
      2094.47984358
      5463.82930212
      3708.00716364
      57.09243364
      1302.98771573
      2837.05496611
      12301.01124822
      4694.48327536
      4093.78646261
      -948.08134068
      759.49903481
      1906.14385804
      -964.47020831
      768.97461077
      21.99215538
      -37.68896634
      248.02588384
      1229.81478574
      -1801.48766208
      2660.62057160
      1734.04788129
      -1008.81158973
      -481.05943087
      1272.46692896
      1395.38296356
      53.26554518
      832.95819283
      486.58567189
      -184.46736313
      321.82618992
      -295.26242588
      899.18134752
      2324.49693547
      4711.41354892
      5599.99898757
      5742.59331757
      -197.63325475
      3677.57619626
      2547.73744481
      -3708.84924072
      9762.78345276
      4750.47651544
      -1325.98790188
      1965.42768192
      776.07967968
      -4321.01094034
      -2012.52141720
      1847.56094495
      6323.14349293
      8622.85707826
      -3687.22106597
      5125.23116331
      58.41530544
      563.62188454
      7658.36210232
      6324.91364736
      13586.39756687
      6278.26314338
      8815.95515379
      3523.80243928
      -2010.40451784
      2457.86746191
      10603.00379990
      1736.05617462
      11483.71126124
      -1686.61610232
      3444.05049720
      8455.99441747
      5668.77883658
      9430.34800039
      4378.28749504
      1512.13604011
      -873.84660715
      5910.35661712
      1080.71854328
      3259.76205065
      -3865.86313272
      5120.22850385
      4126.60326809
      -988.12674464
      -521.48668859
      -530.09547506
      3075.13912515
      2719.42680894
      1336.05647788
      -2500.42295398
      733.14580054
      -175.30470743
      1429.73336975
      850.71436158
      1211.96594133
      -2758.12231240
      131.35045429
      47.37884529
      492.77940921
      928.88545795
      557.96935284
      348.12589888
      -40161.08078057
      6094.53994739
      3801.52441514
      9346.16872539
      4224.19114509
      6333.23321185
      7214.24816271
      2857.98275516
      13440.39861484
      825.81369042
      10466.17110643
      10012.15369243
      -3573.53302445
      10363.60823660
      8081.81785202
      -227.88344238
      7096.65251349
      10030.74865201
      -4417.98520668
      -1594.19870044
      -1371.55168121
      3383.93091458
      4377.75910208
      3314.40316197
      1573.04533247
      2122.84434719
      4280.21754933
      3130.07681767
      6491.38038067
      793.25370936
      -962.04322422
      2638.83084594
      -4162.26118080
      438.39289795
      1009.75570306
      2593.60115288
      -2378.89393182