<?xml version="1.0"?>
<VTKFile type= "UnstructuredGrid"  version= "0.1"  byte_order= "BigEndian">
<UnstructuredGrid>
<Piece NumberOfPoints="5123" NumberOfCells="5123">
<PointData Scalars="Pressure" Vectors="Velocity">
<DataArray type="Float32" Name="Pressures" format="ascii">
      181.57495012
      -18318.38819531
      -25463.06541110
      -25493.28008765
      -24261.99582305
      -28560.32273856
      -29272.80775739
      2718.07782176
      3205.47014382
      -23569.16128140
      2279.10971276
      -22140.43487678
      632.92023494
      362.94192614
      -20993.64946475
      535.09253317
      1782.61199224
      -27025.94562458
      -238.89538392
      216.69498137
      -4057.68691295
      237.17723751
      547.30146161
      8.55504564
      577.12480182
      -131.35990673
      -183.85348583
      1099.56866256
      242.11527519
      -411.85711196
      577.78955872
      771.48268941
      -174.88886845
      834.25841084
      159.41056281
      449.17915411
      1723.71176886
      -155.91679192
      420.51378022
      -233.88787501
      -2066.89511779
      -100.60517537
      -438.54665919
      -439.30458772
      -149.82430642
      589.20738302
      -590.41490669
      1302.90575180
      -30.96312168
      1459.95935194
      -11.44626175
      -460.76946849
      -104.74948163
      546.78858899
      445.80706574
      -713.05269251
      -262.53450392
      -1023.98961877
      -343.09581597
      586.91104062
      701.98592231
      504.92423057
      -357.01214895
      119.80567478
      227.75686269
      249.79379914
      5669.97167248
      5389.50317142
      -74.25417727
      885.40327330
      -17.23770493
      282.98849126
      383.65207454
      109.63831451
      1249.40899236
      3782.61477408
      -386.12105839
      1241.34140300
      865.59142036
      552.29561659
      -992.27807733
      2.27690195
      2743.81917980
      2187.38377112
      674.11201144
      572.86968871
      1519.50278540
      1055.62751119
      -32.19576765
      -146.11665443
      348.10921962
      -33.09898354
      -1408.29768673
      1143.17506835
      434.49062274
      216.05394679
      -520.85904268
      30.77414453
      -59.02031799
      -1447.37547566
      162.04364698
      2531.97767476
      89.92053506
      -1740.28282483
      -279.74272089
      -2769.50016540
      -41.58187177
      862.43937085
      514.54067086
      -345.86579483
      -479.54660928
      1522.55838048
      -46.45330416
      -174.23993993
      111.08562479
      -2258.92538451
      -848.01113141
      -557.62523086
      350.32235439
      836.84530306
      120.53772106
      -370.46383298
      -1032.55639452
      34.28729099
      -3067.11187087
      626.15933345
      -31.46421759
      -268.51464642
      495.12867885
      457.05253086
      983.13869507
      151.78597701
      -24148.52814249
      853.97148658
      983.72650006
      1554.93854398
      1165.65950975
      2156.99645802
      -35.09659774
      1187.99454796
      1015.16212712
      792.62860219
      303.37750986
      130.99905495
      257.42331615
      714.86136853
      -498.68029961
      1008.76077063
      405.48073867
      292.88812048
      1514.15817380
      -97.41749989
      294.03198183
      996.87642148
      -83.59995170
      2961.52656752
      3166.00944289
      298.42775903
      1326.24378719
      2035.34751896
      560.35988430
      2278.52356596
      1933.18794412
      1982.65860644
      1612.18761458
      709.94537830
      1930.61056784
      221.64307488
      1759.80832633
      -40.25143862
      2573.64307835
      909.42183391
      213.93358365
      -5940.42241127
      405.81620102
      2394.84766617
      -1237.94770305
      605.34249437
      -601.74687784
      1697.43487593
      -587.65171349
      1262.67830587
      2112.17171882
      569.22273014
      170.23149001
      2218.27296243
      -63.51174554
      -326.45132383
      544.69753064
      753.88221852
      -4354.49247301
      -1761.86669642
      -232.29742411
      886.84467679
      790.14705525
      20.63749928
      274.64247451
      -588.55670478
      -18716.99888393
      1237.94602368
      1328.06146889
      16.17339051
      6227.31118903
      1810.17690345
      2061.86038383
      2354.12550827
      1009.74033424
      1244.30752036
      1885.52876884
      1789.73094080
      2416.35721302
      1135.66135081
      818.97085782
      405.45774696
      778.40806017
      -846.25584449
      1117.81357599
      1310.30635008
      1291.21759073
      1409.82024040
      -472.53954668
      420.15454956
      2827.30689611
      3685.39457148
      1398.55825694
      3606.01663859
      2438.10873558
      3985.27456832
      -285.13227567
      2032.35378657
      2834.84173094
      -223.91080718
      2983.29868416
      1105.60861173
      -485.93199470
      383.82522680
      1006.67812779
      -1140.99018320
      1232.68112507
      850.70946732
      -1408.68335720
      2556.88538166
      1177.43335790
      1277.05477717
      970.14288962
      1076.68373992
      518.55859722
      1639.67596740
      -843.20481475
      266.13081791
      2549.41351829
      962.55476295
      1451.86320648
      -7332.72859275
      -717.46623713
      543.08313054
      261.31187169
      834.58161398
      782.90205810
      -115.05329251
      78.27473792
      -430.10574301
      -20.11497683
      595.61630759
      -27399.67254656
      1902.32173852
      2801.65607616
      5294.07677086
      2909.60105676
      5519.45589596
      771.42080889
      1220.19732911
      915.00114356
      601.70203263
      1067.35154841
      1252.32712820
      415.85358276
      959.98203972
      634.83896162
      -79.28320271
      1265.64766730
      3071.27998110
      596.94067101
      427.01418882
      1530.20354125
      762.50163750
      1540.42774802
      1074.12477807
      1345.69871278
      2199.27797221
      637.85548099
      -957.44182360
      1926.60586187
      1219.28070437
      924.89916023
      4277.92270770
      2187.80249166
      3452.87833442
      4364.83296030
      1549.58040198
      3092.35781551
      1356.15070866
      1384.11854216
      2855.54973578
      1388.79019937
      593.24656902
      -442.06727769
      1029.66380116
      -2454.69973784
      -2812.63283504
      2472.39108074
      133.40202389
      1718.50424657
      -549.88899058
      663.42906744
      -990.17892587
      3028.92484162
      1777.36491262
      2426.31618914
      437.78858373
      4574.27334441
      -939.39318276
      91.47094232
      2385.06681906
      -391.10834118
      -1162.11695464
      -511.68369661
      806.73809894
      427.13880336
      168.75931952
      -20980.90566408
      9552.78947895
      7316.74982292
      2053.73920600
      2322.78554673
      -1994.08633781
      903.24286215
      3554.87263527
      1162.09075570
      1657.19145865
      2108.10227816
      1120.44318293
      1712.27352991
      872.95667115
      1027.86279340
      1070.73098791
      592.97275899
      1247.96665368
      912.42125870
      3422.39697074
      -153.15673633
      1688.31477624
      796.76484493
      -5309.68932651
      8022.19294532
      4895.21110140
      -1743.21978780
      2440.53850838
      1982.13117965
      5601.98015038
      -907.96424084
      -4113.33670761
      3413.25349214
      -1873.37403269
      -3729.63217557
      1531.37580480
      1189.09716604
      4248.62433125
      2635.42465727
      2742.80112803
      -6367.83677447
      7516.32852681
      -2497.72187797
      1550.38412089
      211.94929733
      789.41050865
      1124.16020783
      2235.95794643
      1296.49591014
      -960.12159770
      -406.93599029
      -1904.94354849
      2745.52017440
      -246.46847555
      -1350.07845655
      1563.80550896
      -844.85695892
      -3086.69462935
      1158.87945074
      -641.74313404
      -997.44130107
      279.70236768
      55.86409344
      731.42016065
      977.21795356
      -257.37224440
      3400.99568420
      15736.88238963
      1347.53624876
      3344.48797611
      3794.59903055
      4365.91905791
      4003.75781841
      3946.80827179
      4691.21324795
      4056.78376998
      -540.88979885
      8128.34188576
      1220.63871322
      1225.17252273
      4509.99806116
      7504.04175898
      4065.88706936
      1351.64276321
      -696.73343144
      781.51281115
      3908.74620073
      2915.02266884
      1181.31116762
      7430.53033888
      5691.02002213
      1653.82701867
      700.14127882
      4294.26792556
      2327.03643350
      41.58741501
      8308.29021584
      1140.76736173
      7438.78632604
      381.08767118
      -92.15263810
      666.46238786
      3346.74169720
      -401.89018761
      3808.83124303
      -1226.88415953
      1841.56240876
      85.58299548
      932.30524737
      5276.70976067
      3061.93463006
      -600.89125081
      -900.86449825
      3506.41215547
      3857.45432929
      1095.38730463
      2022.12118283
      3648.50871644
      3927.92033409
      -4314.84600480
      360.46000774
      -365.49177371
      1742.65231370
      1291.34113240
      299.39316171
      2192.99292034
      -430.52971013
      329.95021657
      -166.36426710
      280.26208904
      1161.90112678
      1816.74691625
      5264.24541876
      2167.43473159
      5112.66867444
      3887.57485916
      7647.37098245
      81.08139124
      8312.95927732
      858.92831915
      -8688.97155185
      1499.95908938
      2955.87114334
      -1065.74651188
      1491.84492060
      2525.23669292
      -2512.73670400
      2943.17252151
      5036.55653055
      3633.79469329
      868.93786129
      3344.81230745
      716.59653652
      6711.21021183
      -2088.06791173
      1324.12488901
      2287.30114036
      1641.10816004
      -2306.92296633
      3191.40156780
      2167.45773445
      3381.67967495
      1691.90597618
      103.37560108
      6143.85386599
      -173.62275562
      2063.52971411
      1290.94011185
      5741.28939771
      1325.79719452
      4523.75654089
      1074.51337850
      5768.86381292
      873.10274859
      1407.26737777
      -949.18960200
      6461.22294705
      1895.14549382
      -1807.90260103
      1591.78231832
      3063.03527141
      966.96848334
      1465.28864342
      1952.71965876
      187.05016308
      5241.09774145
      -1001.75019953
      2881.91116494
      608.35835785
      -2214.79126110
      485.35906508
      1177.22326776
      851.05130625
      -837.41485355
      1078.12560889
      1175.19079394
      386.57459393
      25.09969240
      -21336.21804100
      8571.71544207
      7784.20534603
      11551.77160398
      7678.95285828
      2455.53667565
      4369.32976834
      -4407.02928695
      1085.16852750
      3772.45052293
      -2397.86493465
      3475.34957274
      1826.06388376
      4073.09605122
      -402.08104314
      2417.68777989
      2082.52918789
      -5446.34038232
      3651.70560859
      2860.82540502
      1855.32890919
      -599.92889597
      4815.68543468
      3096.78781729
      2204.15921893
      4126.16406331
      4708.10597452
      1899.81906434
      473.08182638
      379.63071907
      2467.90355008
      -1883.05894417
      997.00954344
      2799.92052376
      1038.11258188
      -597.14106879
      1713.31606977
      -1134.69071786
      -2328.70174536
      6084.58381551
      1495.86393474
      5398.19155875
      -691.90920811
      -1228.53545079
      1134.75721208
      2283.66596101
      1699.16100235
      -776.52010033
      1632.28211428
      649.62875085
      1476.33549801
      -1870.86658124
      1068.49600131
      -226.58014175
      2196.84041023
      -855.08910223
      1153.43470558
      920.99616274
      1035.09020198
      3125.55815443
      -1005.25712461
      -347.25729619
      199.74081893
      -394.63907059
      312.59214967
      462.62444596
      15471.25181418
      13272.07037739
      4266.96439793
      -1882.94830473
      4317.52933597
      7108.97397927
      1606.00300307
      503.71655032
      1116.37712077
      -372.11133300
      395.61679963
      2474.04664773
      1741.71499241
      882.53829587
      1308.16430652
      2334.23657836
      216.67799267
      3269.51122764
      1278.82742929
      406.40437497
      2162.87006281
      2240.10950967
      1391.09962254
      2397.47478366
      3564.23341419
      533.82127863
      83.06124202
      1421.87211759
      3027.81237121
      1369.83824133
      1624.02042972
      -1811.70587806
      2080.21670316
      1955.70360824
      2241.87385008
      2309.51725160
      3036.79636521
      24.60148001
      2213.30472485
      -487.01028988
      1124.84725099
      1488.33829484
      635.08088514
      -392.15608662
      2354.55682765
      2013.87474231
      1479.27877077
      2194.54166283
      -63.26131365
      1159.75015286
      1629.22257712
      347.79073313
      3713.50141262
      947.88234584
      689.93827302
      126.72920224
      -2113.98882693
      -385.51268581
      1431.59911176
      1212.69731785
      1762.68808900
      -123.02681036
      731.53565451
      804.13939174
      407.79324029
      94.11573140
      -18378.22992136
      -5575.75464448
      3010.99985475
      -53.96621073
      -715.27636842
      -560.97334214
      -113.88870778
      2774.98167949
      3609.31896770
      3243.61483464
      1720.78984105
      5288.54673056
      178.89011347
      6794.32879229
      1331.40043181
      2194.28580739
      1651.51144208
      7218.06165453
      1958.51620515
      -3746.83165913
      1550.71293027
      1211.54399176
      -4363.05226017
      496.96591254
      2147.98900447
      2296.90616902
      -4013.98924796
      339.86065644
      315.87192157
      1854.17048878
      4902.65886718
      6927.36404782
      1043.97661509
      1606.13834740
      2348.21816018
      1299.59532943
      -1186.90045804
      3128.82897174
      -2260.17282474
      3378.03398488
      -176.58609605
      3756.53697216
      8942.62918110
      -2676.51438541
      2087.14290656
      1225.61045820
      1468.30302663
      -1300.26207107
      670.19925642
      1862.72120208
      490.42647144
      349.52691460
      -2042.30684504
      2168.29042259
      330.83342816
      -112.53775914
      2029.47261178
      245.05787260
      178.62697571
      899.44625202
      -164.47016099
      -105.31879124
      -619.56920662
      290.87981862
      273.91755286
      36.65332952
      -9181.71208350
      5241.41581768
      3172.21342348
      -914.30776039
      5147.65912250
      -131.83340362
      -1922.21348090
      4073.42298807
      2375.10949032
      2059.40835754
      4114.23256099
      -544.83180596
      3013.39467155
      3615.18871967
      2379.72645662
      75.56325050
      585.72949605
      537.06412988
      907.67416050
      1370.92087335
      7382.17154811
      7032.38767108
      8811.91342222
      1173.33860280
      -204.62744642
      1068.37939575
      5107.96241621
      570.33512852
      1998.62515361
      -2180.84631671
      2481.59862322
      -5285.76678817
      2552.09596113
      1262.74139274
      -711.51371505
      -697.66926844
      5495.29689834
      2250.38689392
      -1917.62955609
      -910.25705879
      369.69293524
      4141.13366730
      2940.34391802
      1701.39598821
      1500.26495420
      256.82140380
      5715.90529281
      2694.03042841
      2845.05695126
      -1898.93487095
      2751.98716724
      822.71578163
      -2038.18962613
      1056.24074042
      -1186.25364075
      827.71792084
      -1361.40951565
      819.91862428
      1419.07272157
      -143.09356308
      -25.34127060
      641.00121962
      1651.02711615
      202.47529112
      -1205.31441062
      2749.32574541
      -2653.28869950
      5018.69104418
      1621.77582733
      -1253.33238008
      5065.50035116
      1561.89308654
      4315.69452612
      3130.20939558
      5566.95712881
      2803.29508652
      580.26664621
      -8525.95687477
      129.43476220
      6880.85618616
      2919.58332626
      -553.61127343
      1118.61555788
      -2632.33157374
      3146.69072115
      5594.89730074
      9522.21680204
      2324.38233000
      1296.27431107
      2748.66870932
      1858.90217310
      6293.69336378
      16445.83514191
      446.39923355
      1139.57430030
      5735.14036552
      -809.88498889
      3995.63550864
      7884.23369516
      444.02207270
      7508.09247882
      742.61416334
      7635.01715278
      1132.61321413
      -3299.66561157
      1160.18328873
      1321.06140530
      -4712.46704969
      5063.75997571
      2740.55751109
      1977.99116955
      3797.96757231
      4326.90234771
      -541.57434450
      -1412.53866173
      1290.25818333
      -3313.33954785
      943.80314492
      2376.84249821
      1852.27441955
      995.33585018
      1279.09331308
      890.09528137
      365.16209586
      407.33697174
      1072.79137332
      909.71369046
      1543.79769736
      1318.20603013
      1627.23828264
      946.42092144
      -548.42557876
      -7886.36499036
      1082.92242157
      2845.93486710
      4806.27377585
      1514.85083493
      2919.74968599
      3043.81666765
      5299.50320872
      3060.81119865
      2957.83025486
      3990.22187065
      3155.66663258
      2214.40894921
      3712.00767209
      1038.14502347
      2634.12942159
      -2860.92212507
      4494.82324194
      4171.58927364
      2498.84208161
      2088.48046196
      6245.84870570
      2778.03670797
      3138.26818545
      8177.90325557
      3270.00980968
      3635.87129634
      6011.60948617
      1919.38002824
      5788.37368707
      3793.04546433
      4857.36032181
      3230.13554692
      12079.07999847
      834.43814699
      -2119.18216649
      9674.61776757
      1536.00927303
      12245.94425393
      -1248.81899911
      9024.74278060
      2176.21847364
      7260.55730584
      7491.19275672
      1254.02701152
      829.45653470
      -4915.65060719
      5214.17770854
      1271.05559180
      1162.42740455
      2192.19929588
      4081.22514406
      1321.75402883
      3619.00388629
      3030.55579194
      3884.67990112
      2031.17615641
      -690.30964468
      -669.96929879
      1470.99551830
      275.76495390
      289.60126370
      -690.34421889
      99.84368054
      454.78442723
      -454.09769637
      5000.61589763
      3072.18263657
      2538.65736300
      2135.17855694
      4562.01198342
      -1306.33631389
      -1059.44453846
      4765.05620495
      7287.85901986
      6332.11310122
      5515.42181641
      3154.53854056
      8300.40849800
      2673.82485975
      2986.31624900
      1857.00211650
      3195.32644353
      2464.74732708
      3151.16978645
      2828.03003111
      2613.64214003
      -2765.62001468
      1621.71700189
      5063.88665654
      2823.62699966
      3815.14394638
      9460.79754951
      5668.33252331
      10921.13273631
      2880.28322124
      8019.39272307
      1160.68963158
      3472.43658205
      5866.99990596
      -658.65509712
      9044.17317860
      2029.27072869
      3856.02272946
      2598.05107449
      7583.88332707
      5027.22440153
      -837.97453884
      10756.26322434
      1737.42051835
      13337.65963352
      10481.70845890
      3284.12739217
      5069.94279380
      7823.98973159
      6885.63757314
      1647.31311003
      657.72218721
      1875.75328297
      6656.48018538
      1517.61755632
      2129.83124154
      2052.70617611
      1322.00250582
      5478.82869324
      -5081.10937856
      -652.15729546
      -3346.82077164
      -1590.29133393
      -2641.97534796
      8049.86242810
      578.58333762
      -28338.34729544
      4027.20921591
      5698.21381027
      1086.48851960
      993.47714149
      2233.24426674
      8465.86672068
      1286.13601098
      3622.40174135
      11175.15197882
      7484.64515590
      2228.76242749
      19171.89037225
      364.71118964
      174.49294620
      3102.92057153
      3055.36043766
      -823.53339328
      3046.07434562
      14129.95361339
      3637.19918048
      3191.41239152
      -401.51814349
      5079.64600842
      15800.29588086
      5208.77696129
      -619.21054038
      11037.49471659
      13712.77200205
      -314.87625907
      10047.12917365
      8546.30708858
      2857.72321227
      9148.57006244
      2874.56156439
      457.31847991
      2760.60094313
      5602.40474769
      6147.26025852
      4130.04480755
      5335.00746722
      4650.72780692
      10270.61552903
      7312.54550477
      -3168.41671004
      957.02971371
      3524.72691084
      12002.48865679
      -2402.98137600
      1208.35245471
      4392.18055012
      11024.57759604
      636.76467270
      -831.90931017
      705.33305978
      9308.51035598
      6058.05446488
      1296.27512400
      -3012.61069954
      -856.70167216
      7054.29130042
      -1373.68624359
      3501.52945252
      -342.43478332
      -3422.42036036
      -228.34813272
      2480.38077580
      3697.51239960
      3128.37347746
      1552.64005876
      -3959.87898835
      10734.08942586
      13027.16915465
      6001.45925805
      12853.82848386
      2432.39006655
      4920.88153761
      5282.60629669
      4103.75735571
      7549.27808426
      7974.18612786
      3597.07681766
      5870.76846746
      6957.79070364
      7096.32038239
      6369.53799090
      976.09530421
      6406.25731844
      5826.63669144
      9033.12008643
      5427.40084013
      -330.04887828
      19682.76585253
      6708.51739864
      7292.10823875
      9601.41644648
      7214.56585343
      5694.87885291
      4414.14106078
      12627.62203684
      2875.23908077
      7333.89901779
      4832.75140655
      -82.11929535
      8977.84082087
      2705.92804882
      3510.11362135
      3199.80883556
      -2036.53088034
      -1317.67542525
      11040.99090029
      -4613.55062173
      15007.94612754
      7615.01086209
      -4548.12870949
      3701.58592857
      8382.35120173
      5233.95906803
      3633.61999916
      2684.91781677
      -4561.85541134
      -2297.05786482
      9002.01530978
      11467.82601312
      3018.15586496
      -8228.44870882
      8516.34715672
      -3122.06545252
      -5020.61098586
      -6879.95407609
      23361.45871537
      -310.18652004
      2130.76603087
      4317.37500528
      -1209.69668545
      4470.92085632
      12335.66525460
      5686.48702082
      3403.79908731
      4274.18376251
      2414.46750370
      8574.70124316
      1881.03635309
      895.11141193
      5864.30356819
      3178.74923549
      6051.02832176
      -1500.93041143
      2301.94285246
      3420.18010611
      3501.91267146
      2568.18370183
      2745.38010436
      4174.80244563
      6466.20884524
      4128.23588343
      4951.33839648
      13555.61054764
      6144.19154250
      11066.08761647
      4498.88441952
      523.66743811
      14080.99900470
      6438.88984867
      4355.35477728
      1949.38507754
      6049.92098199
      4587.72296474
      5214.65704727
      2800.10238943
      7011.43022328
      3052.35193606
      1293.67639301
      3702.03414690
      -799.96546738
      6541.45363161
      3146.80028432
      -1326.05261569
      818.33921573
      3200.94601324
      13900.18063491
      1518.52340980
      5031.34123087
      2765.89950472
      1597.66341337
      6967.40149079
      1283.59710166
      9380.19337161
      638.68872337
      10324.38361838
      3292.94560015
      3210.42139814
      4373.25927535
      4555.47096489
      8949.82404487
      4389.00685594
      16042.36781488
      -302.42570503
      -30962.88851667
      4436.54346572
      2140.62787555
      2487.84398292
      4466.99127454
      5990.73296203
      5660.29599872
      4521.47221890
      9514.95518886
      11240.35104849
      5541.36387055
      7891.70490073
      11785.87232230
      6216.07877372
      10617.26337207
      4279.10404969
      4463.27469594
      3361.90900726
      2404.79696248
      3693.47251052
      4340.83150940
      4476.28009218
      5328.89770868
      558.50073827
      237.39884987
      10087.84573322
      4854.65323884
      3113.94512170
      9892.20973377
      4173.41527297
      7009.78845780
      4521.29570302
      7418.20394467
      6035.12365009
      14780.52935084
      9608.05470109
      5318.71792104
      1508.73560097
      11370.22598749
      -245.80496564
      -5610.84868658
      -6087.98305987
      -267.30038313
      -6550.58567604
      8735.32421130
      1626.81729903
      450.21434874
      -1387.18152081
      5602.10322210
      1254.82142382
      4406.45961166
      5355.77406756
      6522.47440967
      6225.99931691
      4509.21702592
      15515.04259823
      3374.14471760
      3613.59922054
      4474.25050325
      11837.09265009
      2113.72064989
      3528.85583972
      4550.98836539
      -4708.12522684
      18612.19490927
      5501.26953797
      -19317.15986296
      3439.32525334
      2896.18871806
      4629.76392786
      3505.99725344
      8115.88671570
      4099.31394165
      2250.54805403
      7319.46187212
      4605.65923679
      10896.18102939
      14605.97081421
      2202.08931431
      6260.07024546
      9792.49459471
      12048.95037733
      13638.74718507
      4353.90261061
      3021.03764848
      6422.21556630
      7168.00254166
      6225.37084623
      7315.60147167
      13333.21431025
      8426.31762997
      -3543.85575268
      2707.77714142
      4216.83912262
      4894.90126493
      4742.41609558
      7554.40475741
      8838.33207121
      13999.84990672
      11669.25211036
      8424.03922439
      1688.98197757
      5517.88663181
      5415.77355320
      6567.32860195
      4297.60371290
      5954.00277747
      -6853.58839428
      3085.96987414
      -952.85951857
      1008.64391440
      5337.88573872
      5166.64809277
      2237.98543626
      130.93395235
      962.37106008
      -77.23715823
      3686.66184651
      6115.59445949
      -2131.15083333
      -1309.12348531
      15250.10006581
      -863.70645055
      16175.03168164
      -943.86812144
      760.42477419
      10288.51185593
      -4966.26656964
      4609.53988572
      -621.39620000
      1378.39620274
      2941.86303667
      3211.75720808
      5329.89991991
      2897.57433252
      3088.92925168
      5381.42681229
      5091.06187609
      7003.68179502
      11369.38494640
      4880.31593422
      9724.80324233
      3849.05934436
      12487.78961896
      6822.97874805
      10842.92053258
      5873.03850328
      3762.48967751
      18591.48406307
      3196.38019716
      5321.29430446
      4623.83393018
      1909.55860997
      2443.95511147
      2413.27348280
      2963.54611303
      3727.39815462
      9407.64625543
      17582.13060145
      7418.33171730
      3684.00584044
      6597.88237976
      4987.95674926
      2550.57095346
      7669.48722762
      153.23967105
      3814.82331419
      2847.81783126
      2050.73130975
      9451.31110381
      3289.99040390
      4721.85299897
      363.24525732
      -1576.07248006
      5259.67057482
      -1955.72876996
      2175.87558425
      15336.06829806
      -3190.23106793
      4972.02898390
      1429.29983043
      7298.06860877
      6207.60456252
      7027.02915946
      5147.09760731
      6566.20159658
      10342.67874354
      -2755.36975909
      -1653.42346992
      10233.33128363
      -1505.97027952
      8377.72746308
      4333.19317468
      2878.84265834
      13627.17417221
      -2327.05493591
      -6897.43706873
      961.49738612
      6497.01161480
      4005.56383597
      4479.21465128
      5047.25829781
      3633.10164293
      5820.01652989
      2895.14146081
      7108.28457659
      6603.75109857
      5763.00524795
      5355.53506961
      5264.47279558
      7833.09486742
      3219.59126651
      3700.42419305
      -80.12436590
      4263.63916880
      912.22742148
      9640.54023519
      8152.35827591
      2322.77044359
      6929.51805457
      3939.50876870
      7894.39081589
      10132.20922184
      6834.35249565
      12106.18778134
      15882.40708104
      5693.14529991
      7571.52372502
      899.10795940
      3517.33523856
      2069.28547130
      1204.02155395
      -985.33608152
      7183.07181654
      7668.46328548
      659.69015150
      -10407.08713346
      7434.02210864
      3670.17955145
      3611.18443563
      3058.72079584
      6682.95549148
      518.09579301
      5360.56556791
      1319.26215324
      1084.40725420
      1704.21945021
      209.35327988
      4002.30440571
      5724.45169362
      4093.01393907
      6696.21819059
      -2923.96271804
      -1864.89483877
      8858.36570656
      9201.52494852
      1092.86547819
      6036.35197513
      7208.01881290
      -3679.66690565
      1185.93373153
      1433.57797881
      -3211.46341564
      -1408.57153708
      -40161.08078057
      3343.64727412
      5099.46803152
      10572.63676284
      12457.96186483
      5794.55701371
      7908.08980037
      7063.49965512
      6905.13748706
      4134.32687212
      8382.10100484
      7554.52977115
      10086.52409284
      6715.72841807
      7230.34758634
      2035.25545834
      15758.97508162
      -668.79135648
      5532.69820220
      7320.56029595
      8859.80278490
      1162.22967736
      2901.86531697
      4912.83789919
      8925.90969235
      4815.03461055
      1926.57955166
      10205.36110154
      11594.74894011
      6204.44232199
      5354.43059176
      1325.94019812
      8468.62594401
      5597.36507389
      6909.12774928
      2585.76728349