<?xml version="1.0"?>
<VTKFile type= "UnstructuredGrid"  version= "0.1"  byte_order= "BigEndian">
<UnstructuredGrid>
<Piece NumberOfPoints="5123" NumberOfCells="5123">
<PointData Scalars="Pressure" Vectors="Velocity">
<DataArray type="Float32" Name="Pressures" format="ascii">
      -2978.92342317
      5554.77271064
      4351.08201188
      11214.66222756
      1438.63390283
      25846.41796875
      -25595.17781438
      20351.74882526
      29995.72233963
      -17908.27360473
      20588.87511180
      7456.28477762
      21516.73864396
      12641.93175376
      -14540.01885427
      16343.30037711
      6985.64347412
      19819.39940431
      8376.95673638
      9184.30257483
      17287.98047175
      7272.17349285
      17655.09987518
      10321.99959577
      6718.34534809
      11833.02217728
      5575.08796308
      6105.42257908
      13581.49175593
      5156.56493323
      4931.22294876
      12703.94812799
      5953.17227601
      3354.10639494
      5006.47080521
      1445.12706967
      11713.68803561
      7715.57948276
      -1604.48376569
      10212.84503622
      8092.98746059
      -3994.93910464
      1515.67750464
      630.82910005
      5900.14446133
      9291.95733863
      -3137.18665968
      6239.04070636
      7602.00913206
      -40.33546664
      1390.75188639
      1106.61709854
      3329.77516438
      6625.95054615
      -561.32957614
      3427.08465899
      5719.43165153
      1581.94810279
      -1697.43178828
      1028.01373206
      1155.77269542
      2171.93673776
      35.11217671
      702.69411030
      -26.54849863
      -532.02877845
      10886.15271673
      7565.66209918
      6814.52989335
      24195.59477621
      7203.81716051
      11108.14381286
      15539.81759264
      5522.24723892
      1921.94663908
      1933.01098185
      3789.78841152
      2893.50191220
      5053.12772521
      5607.62788149
      3733.43896122
      4958.67815043
      4184.42723545
      3503.99418885
      5946.05687153
      6069.17264238
      2910.18443545
      3421.01058102
      4823.26953550
      5474.81920826
      1713.56792333
      2721.16749503
      3930.11801890
      2958.18901533
      2244.19887357
      2405.92065587
      3531.74244037
      1381.53787500
      -317.75526080
      3552.82056080
      2624.42138978
      1981.65603399
      733.57267568
      1388.86082728
      1999.52923922
      1017.56020411
      2190.12031622
      1734.05777045
      -95.78665301
      1162.02559390
      2648.94575077
      1791.81899986
      862.24585900
      2310.87569067
      1409.29365920
      1779.78385758
      1897.36696653
      -1343.43507075
      -946.00520111
      950.12297393
      2553.89906124
      576.33661760
      1272.13040344
      159.14176937
      2371.55871542
      -1789.77119055
      -921.59432923
      1140.54636455
      918.81497170
      -31.95745496
      760.20305615
      34.64641064
      4795.90477547
      8681.97991498
      9642.28434772
      9863.02529872
      10518.20933096
      13598.20457583
      11105.25996988
      8255.77059310
      1651.07795973
      3110.04255539
      242.72127453
      2155.76350883
      8536.17022797
      8136.18236940
      5572.23388628
      95.95480175
      8573.53446407
      -1759.32087283
      1907.02636073
      3591.03296730
      -3265.54122806
      10845.67319798
      7487.83969646
      -4073.36703473
      7877.43115417
      4699.06311157
      1590.49958845
      8242.53669364
      3421.94644546
      3332.38919086
      5689.15505984
      -3273.79906443
      5293.55973796
      5830.65940828
      -2929.81206732
      3536.53792779
      1758.28081439
      -2914.70736628
      6314.89561855
      2899.04151598
      -1834.33755387
      1071.17647351
      -1863.92979101
      1621.43100858
      2694.49195558
      -1011.31231242
      3033.37635485
      1194.01195281
      -1396.40286724
      827.86913656
      -163.24028053
      2429.43897602
      4642.96223322
      -1625.87385173
      278.84278325
      -131.80018898
      -261.44921975
      1482.83151254
      -201.69414789
      2311.76945504
      2262.69363163
      -1894.90450588
      835.92900288
      1004.55924039
      -2375.98712674
      823.35867871
      14950.68247581
      14598.51549988
      1889.76330179
      10786.34616089
      12561.49407683
      599.71654916
      20835.07051252
      11100.86850462
      5012.11932634
      10760.12035887
      9264.99923760
      7671.05046414
      7519.10342811
      14558.20017134
      8166.92074368
      6879.54786310
      2087.53953739
      588.70453378
      5182.15527613
      5422.33651937
      5977.94739831
      3276.53776201
      4730.94923089
      3274.33816817
      5247.14819836
      5885.44434040
      2928.75608149
      6067.30844308
      6236.37375112
      3140.65668986
      4350.18120769
      -76.07018590
      6104.15958621
      1976.51837131
      2283.92492538
      679.18481012
      1538.59519669
      4946.81830160
      2829.14304381
      2164.43601715
      3664.54370700
      1540.79603659
      1596.71619837
      1841.15105465
      1322.72465632
      2823.15433710
      3765.14195594
      2553.44629515
      3730.44452787
      2262.83280693
      1140.65431706
      3324.72705854
      219.78301433
      1692.33000363
      3398.42250617
      1589.34716761
      1425.69673295
      1238.36891359
      1923.43912510
      1305.44029863
      705.51282985
      1157.08892164
      814.28244466
      586.61179323
      -526.07988255
      576.05755610
      15699.35849417
      11892.75003674
      3773.55280684
      17868.11724466
      13525.52327898
      -2510.03703660
      13941.47960504
      5436.76521333
      13700.72898724
      11543.41896705
      9989.10878176
      10635.19144820
      11491.14302639
      3035.69194451
      12755.20588299
      7070.29627768
      3576.03694703
      4749.66219138
      5821.43843914
      6530.06345640
      7808.69193697
      50.41139577
      2076.42518585
      6249.32541313
      -2080.50644684
      5931.94231393
      6011.04814685
      652.58120520
      7127.98442000
      1514.79098500
      2367.72266922
      5924.50941314
      537.27206405
      -937.78340758
      3309.31102069
      626.10297592
      6615.65009867
      4245.71911944
      -1870.95243183
      2186.12758872
      4641.87803550
      2547.44757193
      1595.93016997
      1598.22528258
      6213.68621678
      2099.68525139
      700.46965564
      2973.17452699
      3176.78808342
      2381.65910978
      1198.91780010
      468.04110282
      539.91717101
      -641.63065680
      1059.54197425
      3294.19065965
      1657.86432833
      1277.16540358
      200.91884920
      96.38875326
      1028.96380860
      307.07796325
      57.85131811
      170.03465781
      -363.13925621
      645.67291656
      16887.72419344
      12456.33730578
      1825.38075811
      21927.41957929
      7119.02456923
      -3848.93923611
      22502.05531131
      12214.14706476
      8579.67994693
      3715.64544080
      6547.16537936
      4223.52423292
      11231.14394828
      10644.23219969
      3028.23791349
      6512.68193432
      7394.83703929
      6199.85607289
      5003.64101854
      9044.20522762
      4630.83231717
      4399.67674225
      5516.64674334
      7409.54751669
      9111.86205342
      5094.78196783
      2179.10317366
      6102.91673042
      5861.72227519
      1464.67639768
      6757.55174496
      3008.78896953
      604.54316690
      6106.15617864
      2930.00409924
      6179.41477878
      4637.11260754
      1144.44095513
      6261.67902509
      4532.99849677
      -69.42126499
      4141.31610703
      2210.51302047
      1425.33760409
      2909.65679915
      1014.38709806
      3405.92900161
      2393.78434938
      191.21676950
      2711.76287090
      3058.03593373
      987.00749077
      3160.78484255
      938.03638740
      1320.65122811
      22.96314622
      398.24580963
      1265.95269358
      590.18152786
      821.62252025
      992.69773986
      510.24224910
      383.04767452
      73.49246408
      -621.45831984
      185.98334877
      13158.41979875
      13157.73283372
      2449.80046977
      17941.11236588
      14218.04797067
      -1196.20083766
      16704.19996486
      10860.62999687
      8259.05333647
      8120.78308857
      8264.89742080
      7608.29392778
      4994.90824879
      8776.31696942
      6761.63715453
      5007.76828976
      9448.52072832
      9497.45231685
      2448.39725890
      8897.01631477
      7739.20738776
      3047.52625979
      6145.80489397
      10103.79973984
      5703.68822182
      3792.63883619
      4551.90462886
      4630.08822608
      4656.90706416
      347.28460339
      7663.82882258
      3921.00065756
      189.87667683
      5259.88018830
      1837.87940383
      3015.49674166
      2010.76960062
      -1106.78831242
      3665.18123429
      1397.78546249
      613.65780317
      4493.20129528
      1785.60333737
      2877.49199830
      1421.59617993
      -1424.55211168
      2846.32326357
      2441.16225842
      -123.09375968
      2601.45332702
      1596.27331051
      1046.72327152
      1037.00906947
      -201.56161048
      2225.14584989
      1460.91832256
      425.74589735
      911.35274186
      25.89028146
      788.03610397
      838.70000704
      -487.54456132
      736.45386239
      714.88389542
      -399.28962092
      255.96982596
      -2560.07592785
      10472.49131832
      7160.80498180
      -291.39367068
      6084.81080925
      -513.41218704
      10877.53502109
      10963.08744696
      10009.62407959
      -659.65921321
      5624.55504406
      3994.80594463
      7528.90065819
      12808.57094255
      6348.20031421
      9178.65645747
      8946.68530967
      981.61237181
      10093.00417903
      7716.25525826
      -2659.46647325
      7868.95033309
      6109.30816916
      -2133.31611381
      5900.08747898
      6515.25192655
      -1646.85254105
      5761.94637872
      5300.06234369
      -224.81264926
      5398.65798768
      1907.65143020
      1400.29711642
      3818.94889924
      961.00277834
      2066.24444519
      3460.21090286
      -535.47052771
      3856.22322951
      3702.06930496
      -900.26413735
      -254.09461334
      -533.91467603
      -2044.90028957
      1023.23232364
      1201.44090855
      -1235.42053286
      817.46468156
      -471.19781537
      -308.28937764
      508.15682391
      -879.09723850
      -1.80976387
      127.10646959
      -1255.89406647
      439.16816261
      127.41157177
      -72.45728494
      -40.92487432
      -526.35743173
      38.54540758
      -297.38814738
      -30.16515086
      -493.72064599
      -326.91724692
      437.39862851
      14701.57576189
      11777.29319865
      6399.38582858
      7866.77290761
      17018.38278417
      -1548.85722725
      20825.81509651
      7560.97196949
      12082.67503184
      7338.55264980
      5957.49265863
      11405.72895592
      5203.30496597
      186.62446763
      12929.61774395
      10698.60656795
      4705.92924610
      3690.13770660
      7333.00290134
      3837.45185404
      1416.75146040
      4531.85457957
      4795.20046209
      1056.36384974
      6136.38870101
      6492.08422297
      -228.02906115
      4667.17208049
      4980.55267620
      -2752.23167091
      5753.99528653
      2389.92375791
      -580.10052329
      2357.01806280
      1465.50214645
      6336.43926023
      3730.80754994
      140.37035633
      4956.29492615
      2659.65510637
      254.11426673
      3705.86002461
      3652.91066781
      2039.67684000
      1652.87654143
      624.21536077
      2450.88001171
      1575.79569995
      516.60063156
      2411.50924873
      1797.08422121
      1059.72538733
      1105.60755891
      615.36771140
      1471.90236371
      776.23062518
      577.40829733
      842.59089486
      -0.68919736
      908.25740191
      816.32483590
      -521.21204294
      497.96641248
      519.46833339
      -202.68024776
      325.13699002
      15267.08676864
      19111.35411361
      -4492.66259821
      23394.06119790
      18374.91212369
      -7632.48431886
      20536.54528564
      9407.57330299
      12576.36056851
      11772.93925389
      7004.63477156
      12427.87625100
      7455.42545321
      2576.64300568
      23995.60017337
      6479.33660592
      4857.39019825
      11990.04673065
      3869.71797296
      5046.96519622
      10178.85959326
      -1895.87594989
      3480.16300576
      6672.79852288
      -1935.33131451
      7046.29921765
      7075.13293810
      1125.28061662
      4899.72947914
      2366.07843662
      1772.32421163
      3354.05986209
      1756.89274232
      1785.25801434
      3972.51341644
      225.88767083
      2198.70836833
      4017.75674333
      2133.38176567
      1628.66394403
      1197.66712628
      3632.35897022
      4666.87461758
      2012.76338058
      2905.09954807
      2272.56024367
      1627.97731645
      2612.75266458
      622.83282373
      2449.67121117
      1798.57000557
      143.41579329
      1653.24468794
      880.86041669
      929.57501251
      1527.03275082
      298.32947181
      1437.95893471
      829.91308708
      596.22645964
      913.43067071
      -41.28095241
      348.45939062
      216.79437467
      -163.08458931
      291.79431859
      17478.39179926
      18793.35325091
      2744.96487506
      21242.28768467
      16815.17322993
      -7635.73160519
      15355.97465699
      10421.54389442
      11414.93934809
      7628.48879820
      14166.58781303
      10053.01568592
      4399.05617236
      6030.94174788
      6416.79898121
      5850.37654551
      9279.24405764
      8351.45993587
      2065.98526495
      6852.12019151
      2822.49446106
      2350.43122698
      7578.44680329
      3590.62559324
      5714.62297914
      5700.95951749
      1315.55696744
      6666.72865246
      5080.76886351
      189.68559406
      6310.55842787
      5264.05849371
      1210.68800954
      4128.85224694
      2280.01193300
      5260.01121192
      2916.21097791
      274.49612204
      4989.14862726
      3871.60596397
      1992.68447371
      1626.74670398
      593.20626438
      576.71069401
      3202.06864523
      2501.08518901
      1329.92499731
      1761.54025561
      484.94682894
      1647.74055547
      1808.47410653
      236.38405622
      1575.99969347
      1421.63885992
      96.80604575
      1180.47568593
      526.50480837
      853.10518797
      653.31936796
      219.08290717
      716.05850113
      20.89815358
      242.37709017
      241.82881405
      -181.72773154
      14.86876913
      14684.26893458
      15807.88486235
      1712.94145450
      12669.54212177
      10996.96439154
      806.72504705
      20192.59005564
      6510.37701398
      6794.21279283
      12368.70001054
      6238.21368806
      11667.91677698
      10353.69894891
      4063.50111011
      5883.09100566
      9532.01902323
      9275.54015655
      9018.07479234
      3749.34671280
      11170.24893166
      4533.21020074
      792.68342183
      8541.74107892
      7281.11346602
      5139.79113590
      4947.97900490
      3032.05409248
      5490.10088437
      5712.54154239
      -86.99696786
      5479.88684422
      4353.29844403
      1009.91032209
      5373.72451472
      642.53233537
      1402.51829074
      4476.24274829
      -775.89482299
      3386.11021483
      1779.95443562
      -175.81360157
      4070.27228543
      1543.49842492
      1636.09812992
      1495.49446909
      -194.24867657
      2599.41134615
      1747.83235504
      -210.50613564
      2340.65924049
      1323.28425342
      590.24513580
      1270.76097929
      652.83530563
      1642.49309191
      892.42786626
      196.18329620
      1064.71984315
      344.49860221
      510.70314068
      334.65146476
      -630.51900341
      376.50238350
      347.47391459
      -188.49312036
      161.44002390
      -4940.39281588
      1287.17023212
      10567.87780271
      9693.29308673
      12437.79680608
      5022.01252984
      10082.68753870
      19443.15798528
      8749.65097024
      2412.54090879
      10972.21087046
      5107.17864779
      4594.48982753
      15209.49015059
      9232.54622141
      6548.76857365
      11497.16209603
      5028.53729758
      5110.59082053
      10590.66173341
      6468.69645421
      10488.24081199
      8077.50718650
      -1684.72279597
      7142.05312975
      6812.68547611
      -1409.02969827
      5445.75620194
      4583.31683520
      582.73574291
      4179.39743525
      3275.53318116
      2450.09859867
      5019.92309225
      1405.38016358
      1880.98071361
      3941.39410165
      246.38996304
      2381.50597197
      2550.09903727
      -670.58346230
      -1080.41066503
      385.15898258
      -1328.38205123
      -196.55381609
      844.07984427
      -1313.83921421
      -206.60686059
      -362.62762361
      -766.28123501
      273.21569575
      -900.78754417
      -177.28861006
      11.86588962
      -1031.12614078
      398.68744143
      44.14780719
      -74.48821142
      141.18207337
      -346.72210881
      -381.09797615
      121.73251529
      -196.36970557
      -430.53546516
      47.11281962
      -211.12717549
      17170.43757390
      12622.85081252
      5859.30343054
      22198.72162749
      16967.10760099
      5387.01683576
      5444.36948723
      10032.00885110
      8813.51880354
      10014.42964894
      6812.40377850
      11077.91514961
      10097.70074317
      4671.18882879
      4760.93395975
      5134.32816362
      6560.16164764
      7454.13690203
      1253.47145974
      9002.55231066
      8930.51556790
      1492.39345655
      3964.76018065
      1083.27200720
      3711.16104352
      5917.15549778
      -1390.90705655
      4168.62294800
      5099.06976688
      -1376.11257103
      6345.70008025
      4413.15485042
      698.61032354
      4232.95922542
      3785.51705609
      5265.33359609
      3854.94451670
      -2238.39813053
      4562.28918815
      2137.94946807
      -513.73953356
      2760.90188604
      1288.04903825
      741.39109739
      1783.04727956
      421.57043648
      1795.23818021
      1319.73035600
      398.93957325
      1559.28370705
      1058.09311960
      775.80762522
      1231.89764149
      995.57560640
      1058.88254427
      670.55502462
      490.39241098
      594.27950727
      623.67122581
      966.88239662
      310.11661127
      -448.49000659
      398.44725805
      330.75555653
      -450.21730131
      -127.95439314
      16482.35500272
      15187.26255266
      2826.98699086
      15548.90518897
      12881.27316579
      5589.52612606
      13384.44661953
      14426.12113702
      10816.20646097
      7706.36805991
      5072.12241947
      11485.70343681
      7528.34626507
      6634.97598252
      11130.09929357
      9453.94867569
      5456.94617173
      8207.47281915
      4804.52281680
      4779.31548390
      5954.85274244
      2444.79296192
      8450.99256615
      8042.68293948
      943.73580193
      4766.10040720
      3588.35960853
      1413.38234994
      1024.51122452
      3710.05882967
      1374.97653562
      1509.68908812
      3768.62559870
      2400.73118146
      3640.74409073
      239.73816264
      1545.75300668
      1554.41938796
      1446.28498381
      2032.64107234
      1621.57199581
      2806.71308236
      2329.99310506
      30.50184596
      2240.11598582
      1440.55650001
      1545.72583469
      2171.88541681
      887.78397635
      2136.17834238
      1662.14375896
      -136.58012386
      1509.33367107
      1736.42030084
      955.10847389
      1000.21845946
      394.57308486
      1088.50233556
      567.95630608
      365.07165145
      562.45261006
      -566.67648562
      169.26926282
      333.69882623
      -287.36657652
      171.06828707
      -4257.20539844
      17379.92768334
      7186.45955798
      13880.56595335
      7705.12262485
      5599.87110648
      2523.08903803
      9085.58705071
      13582.33109402
      4017.10967411
      10978.77576299
      4186.36974394
      5652.35220985
      10577.95850072
      9577.64375521
      3237.75480640
      5173.13452610
      1129.44518346
      5941.54920499
      4408.80400419
      1205.87869431
      3751.90717346
      6789.68459608
      4978.38910808
      3564.01496970
      3343.62627974
      472.79051051
      3409.99640786
      4247.03019041
      331.71567722
      4211.49900671
      4273.17145397
      1490.89124708
      2104.02696114
      -55.30509317
      3535.51007973
      4404.53172619
      1669.28511269
      3701.44299795
      2911.06317872
      1809.82637012
      37.51600395
      869.61422699
      -1181.12220825
      3245.99929509
      2554.27269347
      1182.74217034
      1238.95248099
      692.15387226
      1257.04455730
      1553.32184956
      485.87014566
      1137.39882770
      1095.30812220
      1005.99612129
      857.61955571
      159.28904815
      462.11559430
      558.11735834
      -52.22312015
      173.47473861
      -163.72811492
      -226.82988006
      -315.30194356
      45.41842511
      -358.97975483
      5912.88209402
      19392.77688438
      595.34196441
      12710.59379536
      6716.77732519
      11745.86264465
      12107.17663011
      10879.77754289
      15018.33542720
      7813.27655259
      6141.75619773
      5429.88690220
      11717.71607891
      14241.89835941
      7078.45283305
      4119.71096364
      7242.93088731
      6544.71247669
      3577.28955620
      7677.10681089
      7831.68269650
      6990.87410424
      1943.15062204
      2684.27595496
      3594.84932890
      4979.60388139
      3545.10605661
      2950.21277838
      1570.70110201
      2972.78971039
      6731.33464856
      1859.57139914
      1630.36166488
      1552.45718754
      1504.70965918
      2837.30941339
      1760.69881843
      254.19464825
      4181.73691945
      1696.04713545
      -250.71142650
      1072.23680093
      1790.30439023
      1787.82510132
      1039.88888913
      929.45289296
      2329.98804638
      1507.00418610
      -577.54050152
      1802.93800484
      568.06978925
      252.91041483
      1063.12364442
      185.52597311
      1342.38593947
      1082.47410792
      109.71340916
      1106.80476992
      373.15381161
      165.64096876
      -4.46481187
      -261.68783789
      203.58051275
      352.18104716
      -311.25148497
      -222.45286006
      2827.08457399
      8437.96562937
      4757.55847807
      9441.40721496
      13408.35519495
      9858.82814551
      676.25989684
      13660.70041606
      19021.51893624
      10041.66993638
      6196.93111415
      3061.61423469
      9857.49041887
      6796.00460381
      5088.90051096
      1734.84731261
      11306.63475205
      6354.01313760
      1891.81359138
      11960.45661140
      2412.66649700
      3599.48793004
      13028.41995927
      4410.37174100
      969.40210416
      6243.31387333
      6505.16985217
      8215.09458775
      2902.16212952
      582.82797417
      5180.39638787
      3351.59793823
      2620.32604640
      1957.96368447
      5368.15946764
      1285.30804658
      2720.47697473
      4361.75655416
      788.89432754
      1382.11473015
      2237.50639823
      -1543.72815222
      1953.91305512
      2250.71877113
      -618.61246406
      276.30207390
      -648.47393088
      192.11350562
      850.61886031
      -799.07273959
      142.71838548
      -489.32876812
      72.31242230
      1140.81621896
      -897.97820169
      547.96552474
      97.89770838
      -187.73777757
      663.08790251
      -149.68568963
      -72.94724686
      519.73496631
      -112.95425114
      -77.15372112
      -155.81525390
      -96.00948811
      20513.30158882
      12419.52030524
      759.37728128
      17277.58544976
      14037.40975404
      1795.12690541
      7819.67353080
      10399.82949396
      6721.06599473
      15062.36630926
      9065.56532305
      17578.32522292
      8149.43966078
      -1714.84120904
      5125.04538731
      12926.53180243
      -0.35051269
      8112.18397651
      1430.12759605
      2152.34024428
      5357.87888426
      1581.11693446
      5186.46037931
      6283.59940066
      -1242.23730838
      3436.58037945
      1692.75814447
      1909.30499717
      2786.97132821
      1056.00943645
      2096.48500880
      1587.36349191
      1637.71224749
      2816.91093593
      1243.84985156
      1631.38250706
      4735.31659073
      1627.92157506
      4879.73746502
      2282.53756400
      -258.52171815
      1722.25018317
      1772.80195723
      862.95642633
      2073.80621353
      541.10204645
      1401.89605686
      1648.71657440
      450.76845232
      1282.66526325
      1154.39607460
      470.98044410
      1062.20292039
      586.53472109
      505.49915015
      685.62677593
      -51.82586096
      322.59410177
      532.34969642
      45.70516031
      -2.74935109
      -9.80649231
      15.38186527
      -22.50164042
      -351.30105195
      -259.33377319
      13870.10703712
      15184.58114090
      4152.06196356
      6929.80509079
      11010.07176481
      5314.93013283
      12530.49039336
      4158.74266974
      11625.00356562
      8274.93547859
      6177.20079676
      11967.93193180
      8954.66083539
      1985.26840359
      7373.00665516
      7373.36433627
      9137.52756447
      8497.99561514
      3520.83841504
      5635.04744823
      6894.60977642
      2100.24443447
      5314.85668534
      4430.71754182
      3137.19560688
      6917.91387266
      5906.54558636
      1060.82403773
      1028.63486660
      4515.97277171
      920.87538533
      682.20158680
      4193.65383229
      11.53531537
      1499.76135121
      2131.54997196
      1874.92258830
      92.14441824
      1418.19554145
      1580.51109693
      536.95526411
      1958.87465773
      2269.05802245
      377.59379702
      2335.29553784
      992.65553565
      972.18815050
      2007.76853338
      -66.69883857
      842.14252496
      982.37753214
      -29.63152195
      1552.72726597
      695.47106992
      618.22508464
      982.82344818
      -208.80567712
      773.78307533
      492.07754551
      -82.51634119
      59.42258345
      -495.92084068
      192.88153005
      214.06686529
      -186.10400922
      -8.58862397
      -8342.33859857
      -2531.98177155
      12193.35668294
      8078.76141265
      6298.90324614
      6363.75237990
      4083.38713975
      10687.62246784
      9262.73670494
      4315.12703882
      4977.92682472
      6012.01445932
      1307.14424589
      9853.07481005
      10559.01389107
      1432.08952176
      5998.57549365
      7635.13261606
      1759.57262359
      5747.65391395
      4322.96065096
      1272.17958884
      3370.68379761
      4615.08664307
      364.32701415
      3630.41444495
      2722.90837577
      1955.40821065
      6039.82536716
      1314.68528285
      3387.65561824
      3266.08078173
      297.04708879
      3193.16814496
      3372.08111123
      2051.61052291
      3625.85068749
      3212.84388192
      1902.60835772
      1516.87134674
      784.42960290
      1168.41444803
      1913.37760422
      1701.11197842
      1670.50853463
      1051.42587886
      167.46314366
      1276.52067072
      -634.35931354
      528.73602663
      799.69769303
      168.89881168
      -54.63613256
      -261.24516646
      -1213.90990062
      -82.04740278
      -163.79538214
      -562.46432068
      -196.22404109
      -369.18518033
      -209.70890352
      144.78393675
      -465.25176502
      -318.86280515
      146.27363878
      -55.71940580
      22645.70484833
      9243.78427480
      2288.23263537
      7718.00486112
      6971.40461095
      14390.69110580
      11644.97380457
      6759.51699536
      14927.83749716
      4866.09922506
      8889.12259248
      7579.85405945
      9232.50147503
      8487.68139556
      6691.15492466
      6841.90692444
      7619.05540512
      3909.60001536
      846.62471135
      5274.75118205
      2429.30403359
      3196.68389671
      4757.62009636
      3703.91138194
      3691.79685387
      1007.72996191
      607.90999656
      2049.83933860
      2490.40941474
      -1165.22494405
      2954.40195756
      3256.08439226
      -368.31325251
      3303.27263169
      2045.70132204
      741.29086256
      2428.49044161
      -410.51944097
      2060.70168299
      2749.33221590
      -657.70554177
      2331.03192673
      1950.01200781
      499.39420551
      1878.34468415
      578.87347162
      776.98137072
      1231.62892689
      629.44654035
      1180.13029542
      587.41582164
      486.83280748
      654.00522221
      314.03585936
      493.40717278
      613.02848142
      -32.19487468
      385.98344624
      312.35297016
      79.69207208
      -48.46796421
      -66.41457447
      -50.92144965
      306.99272239
      -141.82074282
      48.23342508
      14117.40816693
      2741.47814000
      -1310.44598114
      15092.04775713
      10398.08441202
      6257.83603602
      8559.39480050
      2946.94489984
      6798.87227445
      6547.19251987
      3660.34972058
      5590.54543682
      9045.66072531
      6957.36244303
      3904.33058958
      4229.49024035
      4585.44278960
      5104.09314788
      -34.64686602
      6293.24757591
      5357.67424319
      -2663.57893961
      7944.87883337
      2968.74268020
      155.92029847
      6547.86082115
      3029.46912621
      2691.09304931
      2843.42782834
      2595.05934384
      2703.48014554
      2001.88128910
      715.82508949
      1073.62741793
      2570.64245558
      161.93177033
      2137.48677630
      2043.86227843