<?xml version="1.0"?>
<VTKFile type= "UnstructuredGrid"  version= "0.1"  byte_order= "BigEndian">
<UnstructuredGrid>
<Piece NumberOfPoints="5123" NumberOfCells="5123">
<PointData Scalars="Pressure" Vectors="Velocity">
<DataArray type="Float32" Name="Pressures" format="ascii">
      -41.44802962
      -18214.23118210
      -23446.90500007
      -25493.28008765
      -24261.99582305
      -28560.32273856
      -29272.80775739
      932.42539308
      227.11495350
      -23569.16128140
      1122.18935628
      -22140.43487678
      -1467.39341310
      1423.78882435
      -20993.64946475
      -1382.50253361
      -781.99072891
      -27025.94562458
      564.17619203
      -370.98638443
      282.49813765
      -1868.58313535
      1326.55467732
      3582.60713687
      -2899.13903173
      2614.94723019
      51.61808033
      -5000.42150438
      3284.01927915
      -2276.00243502
      -337.41130263
      235.66345158
      4358.67512128
      -2636.14888117
      499.82661981
      1214.83391097
      2036.01322419
      587.07434029
      1516.98333046
      -235.21268793
      1062.82399980
      -457.17087519
      3042.06323354
      1441.39460826
      -1217.91004216
      -981.58748828
      -1172.47496499
      -3034.27696704
      1288.58354061
      259.47670408
      941.98843753
      390.91876199
      303.37163253
      600.82551964
      939.99005046
      311.52493330
      436.16690807
      14.46519969
      598.69943664
      1708.93403757
      482.13246530
      -509.61683859
      8249.35607095
      1134.44618593
      -115.57784304
      783.16323836
      4645.88364141
      5389.50317142
      1071.05278839
      1201.76299289
      506.17023767
      545.91814857
      662.28065412
      612.86053465
      1191.24464403
      2733.97246030
      -32.60801443
      168.75818940
      902.96527458
      357.47677837
      582.76743536
      901.84262451
      2122.75125910
      -1031.71054319
      -509.62612117
      1279.41637515
      541.30780997
      2791.85795131
      -1797.68256151
      2345.51269253
      -217.44321489
      -93.25467134
      2424.11374573
      82.17707260
      1733.18009633
      1500.43591358
      2028.23315843
      -4038.44121043
      324.66259424
      -326.68690701
      321.64810047
      -8.82084984
      -587.14812921
      4334.44081999
      -121.29398168
      -2682.80824457
      51.92535151
      1007.49601856
      47.61937078
      2.37005676
      1109.64256095
      1414.18133573
      412.81448785
      603.87172409
      3027.30785742
      1306.00558835
      5864.17057011
      119.84980051
      -936.70956796
      381.11036220
      19.13191233
      246.77751031
      413.00196139
      1107.95110706
      678.57912902
      525.85235000
      1508.47124705
      -657.21687209
      433.51417470
      109.35303591
      1017.17430125
      -470.56444023
      -24148.52814249
      1283.00349920
      2278.66402314
      -714.91682121
      2721.23052176
      3421.63280444
      2133.10669407
      457.72099149
      292.66018386
      553.56707974
      1406.29410588
      1152.51223530
      1212.13045469
      881.87011165
      3176.68298293
      3026.48685511
      5340.48405219
      731.37284564
      -1564.74816503
      3380.34316652
      -452.84831761
      517.04450188
      2776.42909821
      -1446.76881020
      2841.46669988
      636.29768078
      -10272.63875651
      1585.69336593
      2656.14591481
      426.60239920
      3141.37015544
      1974.33694859
      3700.43655524
      3529.53436319
      2305.33877180
      1004.54344397
      4978.93536379
      1486.51482193
      1694.68507208
      -1729.94385057
      2448.21273747
      1667.33086412
      -97.13194841
      3467.19096693
      497.38020795
      -131.18935872
      -859.85900756
      1607.71850582
      420.37307991
      1326.93339119
      -2815.02574121
      236.36610474
      1.19757887
      -1186.11443198
      40.75536209
      237.35474310
      -962.22462312
      -1098.45824773
      -60.27090173
      -870.75767649
      630.54762475
      494.92746039
      712.65529958
      -91.41677639
      155.81759108
      1529.08912015
      -18716.99888393
      2103.06393851
      3083.35688586
      2605.00351798
      1113.82962651
      1717.27205452
      2156.51440983
      -72.06331925
      -2475.76666336
      4149.60257637
      610.22450596
      474.32165648
      -726.07001410
      1426.54591618
      5164.63389873
      2105.90311619
      2283.89946645
      1487.83720180
      3706.16328511
      6947.95706591
      1793.44935910
      -1947.92096068
      2693.47051637
      606.82353587
      1750.05582372
      1505.50845205
      118.54810720
      4141.74108158
      -298.22150576
      3870.42585119
      1048.23919729
      654.85357253
      2318.17922371
      1643.35602929
      2085.84369919
      1931.78880539
      -2018.79099375
      4024.17720228
      -1516.07065089
      5913.36930556
      516.12115903
      2239.14856971
      582.89400904
      2104.80203685
      2175.31418793
      1496.15666282
      718.15658720
      1371.30733366
      1642.86809718
      1530.33932045
      1440.96456145
      1768.93231142
      -208.46666667
      2233.70216008
      4042.06694250
      266.06552603
      -1007.88523445
      621.98484806
      570.98761830
      -52.50471958
      -2176.70020209
      -723.50714720
      -257.43963002
      335.50351023
      282.40029414
      -247.89011962
      -27399.67254656
      4896.29009070
      3983.83315585
      4122.12316834
      5188.21674192
      4120.40171556
      2283.03386916
      4215.70960735
      3849.84697501
      -762.67510399
      -4360.47358373
      -754.29046816
      751.53004355
      2277.35020082
      3000.43856481
      2042.37064895
      4422.48219658
      1963.84111444
      1041.04445331
      3399.59680878
      1727.81118217
      3132.82120763
      1953.16367847
      556.88894035
      5920.47801856
      3218.83452716
      -1547.30867850
      1884.69627080
      1759.29298851
      -540.10077079
      3406.59055983
      5347.95881736
      7213.25040595
      1276.86436494
      1993.50233718
      1902.45608218
      1677.65860433
      2226.56749643
      2158.40872744
      1543.15423275
      886.21116166
      367.42849931
      930.47086431
      247.35319674
      922.71567325
      1263.92250533
      602.20989511
      461.41978785
      1068.29386653
      97.68368735
      624.58955893
      -165.21495654
      592.12172166
      2181.43408807
      3138.89084024
      1279.13379322
      532.49103006
      3069.01222267
      2393.77202855
      1756.45678519
      1581.97917268
      1252.90476186
      -1441.96416018
      71.33969508
      -521.76142004
      -56.10785442
      -20980.90566408
      6205.79019153
      8140.06858345
      957.72746500
      6341.93450532
      3101.72108419
      4613.33094571
      2981.14066747
      460.16583290
      4113.57787448
      3164.84917859
      2921.00571299
      2457.87140447
      382.01723374
      3009.43501661
      -117.71638859
      -7900.05501212
      305.30170576
      -812.89658942
      2668.59290406
      -4248.80323463
      1447.61147496
      -1001.38031409
      -594.97274666
      3331.16694442
      5722.76376481
      -161.28704156
      397.34622450
      2039.43682373
      3733.07901459
      2433.82794156
      2254.29449688
      3310.20848299
      3532.57219336
      1423.84777837
      4386.40276515
      2429.77886329
      1945.14337883
      5772.97361925
      2077.03787258
      2033.51484649
      2571.35961351
      6762.51294685
      -1528.58096143
      379.07051546
      2444.58146037
      3378.68320970
      4614.88293844
      3142.42927408
      1189.15024433
      869.32065008
      1510.58344900
      -3361.45454943
      -318.36394579
      -385.83725777
      920.85990302
      -50.69393555
      2021.24258497
      2676.42519945
      946.33999307
      1557.71335577
      1030.30233013
      613.23669885
      -877.86223622
      193.97157102
      64.57040606
      5421.14009387
      6891.47775273
      1532.67153474
      2478.19830013
      7433.25178096
      1997.63797522
      4466.71214140
      8203.75215064
      2240.67554166
      2365.38448318
      3033.43741606
      3433.84537928
      2873.83634591
      1888.64586687
      1049.78214716
      6587.19561721
      576.05858061
      2412.80204018
      6049.33237211
      6574.16022174
      1050.05793140
      1078.03533405
      4558.34427409
      4709.92683200
      6172.85542112
      3347.18008272
      3747.66351366
      3828.40545029
      1539.44565402
      787.52557045
      5574.47282865
      2006.34137444
      2839.70267388
      -980.62049143
      -6312.92894746
      1949.44940267
      1086.35728227
      -889.33501227
      10927.54101153
      -120.42457760
      1588.40883606
      4621.56379580
      6799.85807791
      221.94455904
      1419.12319046
      228.09677293
      -271.86407805
      5036.97381937
      1397.10178801
      2843.68905448
      1516.49963214
      3347.90381538
      2258.60025109
      1457.71844869
      1200.69133914
      709.89252827
      1215.68192772
      587.17331785
      1887.73352314
      2172.02868458
      1057.50497218
      119.38822927
      -1765.54004334
      -1025.63504330
      -494.01390070
      -24.73905787
      8447.96186072
      2786.70773986
      4984.31456716
      14404.22647157
      620.82251124
      20367.37779013
      15706.18337597
      -264.03199951
      1446.33550824
      -3321.80569691
      1866.50464696
      1679.91075245
      2247.99910158
      10342.48660181
      2264.48374689
      1480.28485141
      11819.78839886
      2716.78463419
      2007.53242264
      2673.44068309
      1860.38466674
      9721.66055843
      2596.06152712
      1643.56761564
      5180.14750263
      2862.22273770
      6167.49499791
      3127.49374441
      -750.49432650
      -586.38537423
      2659.80906566
      2922.53279943
      -7592.11069487
      1567.93501758
      -831.85778775
      778.24002086
      223.20354717
      5269.98583817
      -2426.87561441
      2729.10349913
      1392.75775036
      2541.74029888
      17.43941769
      2603.16676160
      3941.26542647
      2839.60933537
      3602.35403580
      -3173.52620071
      2913.63250997
      992.10864020
      -79.20678469
      1430.01484503
      886.23891429
      732.43595446
      -870.00123664
      12.90689577
      676.34856152
      4606.27288621
      105.36240643
      155.17666693
      2714.21213695
      1172.87510338
      -1863.08015856
      -1092.06256204
      -692.93783343
      -155.71290691
      -21336.21804100
      8534.68712813
      17642.47619700
      9883.47158033
      343.58443279
      2593.73977051
      4738.30303098
      2130.60678943
      13435.99230274
      757.73679885
      1976.02023718
      -166.67849033
      1782.00101172
      7288.31016231
      2579.00479291
      4716.74936458
      7810.94312103
      4387.00000797
      3397.83235782
      166.05403777
      1942.46140035
      2901.36282839
      861.23947997
      2522.13957586
      3969.01374112
      2119.00746598
      3799.72211509
      4668.98904436
      821.70125015
      2261.18517862
      2799.30751120
      744.43104572
      1945.70157614
      -1654.56914872
      766.18618202
      -1605.68070007
      1984.74631492
      208.38656691
      852.39435178
      -1225.85336447
      2632.02753038
      -751.58309399
      1348.39978173
      4494.53424999
      1284.56274841
      -772.92126277
      2234.82262489
      183.93320456
      2379.68776130
      275.67072948
      3142.95992889
      1786.80763367
      -1393.16133219
      -1108.91386903
      -1338.72529613
      -144.38129251
      -417.75335028
      -258.70967137
      1199.40177188
      386.00220306
      1485.98118132
      859.13324109
      587.70906883
      -453.33977149
      -397.51515163
      66.83263750
      14431.74149544
      2427.57185701
      9178.53619335
      -917.86328134
      4268.57775837
      9781.48820221
      921.15993464
      4391.97089772
      2729.57654643
      6231.68761492
      3557.46200495
      1332.10274466
      1225.34661115
      5113.73561726
      1881.82839261
      3151.28045865
      2702.48394292
      2138.83296751
      1048.21265779
      1753.10670317
      3226.71911738
      326.67150966
      2197.04106604
      2621.49059421
      3558.52190149
      420.36139666
      -247.88343161
      70.81072918
      3346.56973674
      3626.91096641
      823.10798966
      539.18558207
      1447.92597371
      1844.26339556
      1697.99771648
      1759.14227178
      4220.18078001
      -686.98829823
      3454.24096599
      1091.44487187
      2809.45369507
      -1347.94683028
      183.36806295
      1045.04214055
      2707.19308114
      546.68565142
      -1922.85222363
      -5.21523384
      2337.97687169
      1696.51681227
      643.62204582
      358.28236271
      1878.98337863
      1448.26855223
      243.26283866
      1482.55120087
      -1162.56488398
      -2312.99018197
      369.78445310
      2319.85310632
      2762.57983058
      1863.65826231
      -138.57018059
      -590.69350198
      1214.06383351
      1379.20162555
      -18378.22992136
      -3384.77685849
      5371.22514713
      3569.24750766
      3882.02763420
      1955.62827853
      1155.21575054
      7868.77843749
      5431.66261900
      1650.69763639
      1423.40637521
      6237.86222390
      839.03673325
      9099.86624724
      259.67091409
      1767.23038403
      1377.70732146
      707.56711834
      6153.40628693
      3232.52952221
      2587.25832173
      2180.47061300
      2054.13285759
      -295.74134748
      1229.66203626
      1392.30527050
      2616.91501945
      1708.60473810
      4617.75441867
      1551.39669659
      853.26463769
      5908.31500458
      3777.09861274
      1619.41230108
      2254.17352581
      4717.05838039
      2911.02456600
      1743.78449377
      1695.05356054
      3320.53116178
      2488.74934113
      1046.23938680
      694.56144770
      40.27536033
      -450.66436624
      -1151.13343603
      3440.77434395
      1990.08020430
      713.82400613
      2517.50215548
      1191.23608296
      -149.27130105
      -427.97673351
      2394.74788062
      616.42668978
      -1189.70305517
      2997.00271810
      -1117.76741409
      -813.44687910
      1534.68672447
      2758.74063584
      1531.81085569
      -228.41399864
      -216.73735714
      376.22370933
      391.17100323
      11882.04336598
      2676.50710895
      7412.90710315
      3698.03425505
      4017.07621048
      930.76643207
      -135.37052554
      1176.82073222
      -3971.51821835
      1369.05277045
      1955.61906782
      1720.40368930
      4084.54137542
      4540.67857791
      3005.30148657
      1044.52976015
      1577.95260937
      8431.36659505
      755.93708187
      1198.59798549
      1328.79532874
      4037.44772695
      6056.66083331
      1700.80790991
      5122.29671902
      -1334.61688240
      3490.10237784
      4702.88761578
      -3829.58290882
      -591.01914748
      5247.58594181
      4372.38733557
      -1349.75476566
      5218.72545524
      714.23280993
      1335.88483142
      1576.70663392
      1643.46183509
      1341.78441222
      -99.47509514
      1452.21620109
      555.41479263
      3351.83078096
      4805.93716219
      1294.88047735
      1530.68528387
      560.76898591
      769.38813137
      -474.85876507
      397.09608948
      2519.76023677
      132.83458229
      1904.22276016
      -620.37601593
      -333.71097135
      505.71071649
      37.34482754
      546.12723374
      370.29470191
      1198.00405718
      1738.93485737
      2137.53656432
      -1470.24696598
      804.88409587
      -419.93377201
      -74.20293322
      -5314.21311625
      5393.72019452
      2439.66526171
      2030.00636607
      4591.40098296
      2951.33773033
      4682.10257090
      2202.62506450
      2765.97593125
      682.82418338
      1999.88742944
      2027.43048413
      2756.18794083
      2124.66270754
      1376.10577979
      -1616.26414464
      1036.29220400
      4123.90570293
      1000.04747446
      4522.57597762
      -2574.12507743
      2467.95904238
      4975.54279098
      4058.46972901
      1805.69964297
      1027.23834342
      1043.70890911
      -281.03676037
      3534.55337505
      3883.21091087
      256.87359983
      2792.76988705
      3930.43491569
      1503.94482776
      1687.00860037
      -897.92218511
      2677.11223852
      -394.23168856
      1203.93722275
      -2829.48119034
      5207.73480844
      5687.27659999
      1737.45015694
      2717.79585142
      3183.07304407
      3959.03133354
      1964.94546414
      -3020.63598000
      -355.02944543
      227.89856147
      -1188.65414094
      -815.32703903
      3150.98151638
      1986.72443357
      911.18185688
      455.23500881
      -1403.26609582
      -2831.02922303
      333.59859675
      3026.73207115
      959.05703233
      -945.84925094
      -1902.65546838
      263.27503793
      706.02989691
      822.85605749
      -7886.36499036
      2817.31146867
      -1272.46581523
      6451.70520362
      1073.64193991
      2521.34366814
      1398.93111075
      -3336.04075326
      1343.45971649
      4248.36195314
      915.09962007
      302.65106417
      2631.14270435
      2725.29309613
      1648.08902256
      1611.92729280
      354.75178711
      1662.34197632
      -432.53181847
      3166.69117358
      2235.83289944
      2247.37965716
      -511.14063571
      -314.16775876
      3095.68990201
      2922.00211210
      -3165.23434869
      2198.86268780
      1220.17213951
      1893.03823143
      -201.99892191
      2482.91204868
      4137.05001114
      378.78516270
      4599.34261177
      -730.39359938
      -4114.52344214
      -1628.35568759
      8372.23425163
      1141.36626551
      294.41750481
      2551.52265465
      -1911.78343712
      8132.73343232
      775.76539402
      327.28905301
      -399.19193231
      4936.00710840
      896.19094295
      1297.78944410
      2525.59764091
      2642.70291697
      3888.06154464
      282.86377992
      -451.13383873
      -214.15993434
      347.37620530
      -330.82331474
      1281.96016371
      980.38560596
      708.61464970
      405.84193610
      754.72232768
      3.16335221
      172.87280111
      228.81978470
      10222.77134146
      10115.69900358
      5184.31583894
      6103.67688865
      7441.25850855
      1212.35112162
      1409.99462751
      4402.73133982
      -1441.38868190
      3999.96100751
      1397.89411367
      63.07283064
      2721.02881536
      6041.75579259
      3201.60894878
      1419.69720095
      2199.32588251
      464.09368746
      1854.46902847
      1104.80706884
      3037.05600766
      1350.06098917
      835.15447280
      6116.57193842
      -432.35117332
      525.16184038
      -1145.21941219
      601.07155871
      2635.19179545
      -1867.12557710
      3621.89387731
      1815.07522042
      4421.26926354
      816.21523941
      -1169.67276058
      -906.55749566
      -4161.94966741
      -1847.17937863
      2612.33192769
      3167.15689138
      1103.29783073
      557.35507062
      2094.36709660
      -358.66149394
      2068.06243715
      210.79984650
      -1661.09406687
      1496.16463458
      674.41913891
      -134.55957153
      1551.03306675
      -433.23721159
      1151.06279785
      2379.28950579
      -400.40843635
      1051.00127784
      2059.34104851
      132.20122432
      154.15439089
      852.65681237
      -584.66437909
      -927.71005642
      518.24793038
      -272.28085349
      260.62134072
      1113.03840366
      -28338.34729544
      4748.27915087
      5332.84590912
      1349.01417731
      6672.71666691
      2323.71945165
      888.25110613
      2045.54672349
      4220.79039171
      3656.96297733
      3097.93303568
      3358.25656189
      3888.72621730
      9601.10737244
      1034.05541890
      403.89135576
      7891.88347918
      2669.87325467
      687.49200348
      6569.85493127
      6455.16286926
      2342.72130675
      1243.37069086
      4496.24598154
      -2439.22633430
      -1456.86885878
      13103.43382363
      -1168.21397159
      7934.37615972
      1264.53098612
      14014.39121121
      624.37903689
      2255.88541239
      1117.35840019
      -2145.69564075
      4263.03310085
      3242.13380622
      3269.85033757
      3629.62870243
      1743.88558463
      1547.91726459
      1988.98886135
      1850.95089934
      2344.27269182
      -4233.27724106
      -583.21838451
      -4715.00324099
      -272.87623735
      811.14640210
      2419.86491012
      -1459.63945914
      1767.03089193
      2767.53723925
      477.63258481
      23.25463076
      819.78048893
      927.58455927
      1448.21828527
      1333.19035003
      1026.32311411
      641.45409541
      864.88959410
      96.88757376
      256.86546664
      491.00837272
      -62.34697355
      2486.19706402
      2338.44222307
      5371.67563944
      6531.36382738
      746.27270121
      1686.87893948
      3218.31124815
      5203.76301456
      2522.93141348
      15057.49120931
      220.83764363
      2934.50576436
      12002.54503096
      4315.21736865
      4581.22622719
      4377.10950940
      3555.14584147
      5685.43226307
      3577.52338901
      12137.94589542
      1986.04761764
      2187.38687391
      7418.76430006
      270.20255377
      -4886.08449835
      5933.63834058
      8715.03173166
      7287.05137802
      5637.91280514
      1974.12658400
      4940.25376736
      3892.19196335
      6799.75182334
      1141.31105641
      5621.13466435
      11477.49126769
      3595.00219906
      -1550.66617089
      12526.65842678
      5459.17099312
      2948.37622526
      1192.26807442
      1730.11615275
      1608.77822113
      -3454.20887836
      253.02481769
      5825.59278246
      -175.00275678
      2655.02182199
      -808.68102339
      -855.01681706
      -74.00164848
      496.62798601
      -747.66589917
      114.59888058
      1014.36543102
      -545.34731323
      -116.65199998
      523.83747740
      -202.96583256
      140.16208985
      1289.07027289
      695.18201830
      404.00982669
      58.45540906
      -316.26751187
      4482.79474576
      275.53690332
      5732.51910635
      4574.74468835
      7752.54475608
      5646.52510125
      8035.90494145
      -10197.75314609
      28155.44567915
      6462.71478487
      1174.73298642
      3398.77691791
      4160.84094895
      2377.68667326
      6442.97984976
      3139.65608560
      9814.09199853
      970.71250994
      10539.88113630
      3047.19858983
      547.43707077
      4338.59250579
      1399.49679290
      5699.95770091
      3007.03267977
      3955.79501867
      3548.49173203
      10450.39394912
      11273.02942158
      3425.31182778
      3112.69168129
      1058.06943811
      7132.31156167
      4527.19438281
      1825.84218965
      4183.40052361
      4637.56555552
      2495.61019730
      2654.10282916
      322.45312653
      6612.93857780
      2804.78413525
      4908.95009868
      13084.80008071
      245.61765921
      -2288.83863924
      2241.96286424
      1705.96693923
      3031.19359467
      2337.60320025
      1165.42411463
      4267.34184856
      -4324.32642587
      1829.58849048
      1203.29686136
      -1090.54220762
      910.15581251
      1847.37007070
      -1161.78348278
      1476.47211335
      206.02312262
      252.80535971
      498.69431251
      106.16282157
      799.69696008
      -76.80523860
      -30962.88851667
      7686.48541079
      4761.13499915
      3778.17273011
      798.78080344
      3580.71584099
      709.32111725
      4386.13339682
      8049.07031790
      4877.81996582
      5358.40159817
      2786.81588155
      7220.53116311
      835.56336757
      4372.53007758
      2792.65747601
      8741.05009605
      6187.45382135
      1986.09512527
      4730.62759927
      2448.45501374
      441.52986994
      7580.16564202
      2835.63355932
      3060.77869187
      3875.97444324
      6954.28974326
      4620.87009983
      3152.07908899
      861.04177173
      2700.33819992
      5969.44586361
      -3246.20663631
      10044.75629470
      4326.17388398
      2715.46388715
      3550.87663831
      2226.83265689
      -250.48502986
      116.12988391
      10989.49907112
      3961.62720151
      2223.98614227
      -5328.10709269
      -2179.72166174
      1614.87389258
      7044.70435237
      839.67480766
      -7862.97755793
      1614.52484673
      1512.05817637
      -480.96793138
      1496.75425462
      531.82163595
      775.19711963
      310.01255461
      765.96610330
      120.09420690
      1074.26882741
      -885.39842520
      1648.56449254
      927.27727657
      176.46849218
      468.07607999
      261.60105260
      456.98687398
      -19317.15986296
      3502.27912135
      6051.42167552
      -1352.09861290
      2245.12326346
      8870.73676017
      -103.06639989
      1358.08624261
      6687.08305791
      928.23568979
      8329.42378374
      4444.53480545
      1719.41524471
      10640.25704791
      4037.47415514
      4418.02718387
      5876.28564774
      -1132.36793255
      2627.13592095
      2267.27647966
      3794.02168859
      3629.00364118
      1152.20261688
      4161.75831272
      953.09244415
      -1463.55409830
      2252.47279315
      2994.34942099
      1628.89534385
      919.80006330
      2212.48966344
      3314.98325581
      6907.59628060
      6523.82625438
      -1393.66948719
      456.97602977
      162.52463611
      -1611.82974923
      6881.58048298
      1321.73907518
      2795.13292912
      -124.13689910
      -1562.18833305
      2004.80907330
      1520.54610988
      833.73689859
      -45.94362940
      -95.25783234
      -380.47730430
      1851.59570214
      5319.64104971
      6045.29661156
      2605.33914519
      1743.38907260
      1654.37075739
      94.39511979
      -390.79846035
      813.89471563
      -443.65729469
      1130.99866176
      441.98028307
      619.76916757
      1290.83978322
      828.71030388
      342.66564102
      1088.43224098
      3211.75720808
      9194.89424242
      2676.90976355
      5244.78428006
      2914.72028926
      5021.52583251
      1768.66932139
      5472.56413244
      4650.66796950
      4662.39130781
      2061.71103315
      12612.46008471
      8265.95191182
      4103.10065303
      -1247.54944090
      5134.26110648
      5372.24766535
      3885.90686734
      2730.98912461
      720.45785651
      2039.04555588
      2472.49859094
      2176.58999446
      1167.98299519
      501.35871388
      5355.56275734
      2094.76921967
      -3465.16596742
      4066.78487975
      986.09666919
      -1120.23180272
      2956.99239020
      2164.02586057
      2276.20602420
      -497.56660105
      943.44450219
      2058.74973130
      -3632.05618602
      512.88579980
      -8692.37603720
      281.56537651
      1280.54274274
      4917.27575320
      3363.45950873
      2339.22896905
      6439.29375133
      4223.46908926
      1700.74079369
      3834.33699153
      3636.44306666
      2722.69699343
      1498.23271099
      -126.62908888
      665.65300989
      -1486.31825397
      2135.52178896
      -4.69106730
      498.43498739
      1896.48099028
      237.30558889
      597.73248941
      705.34567470
      546.39488399
      405.67154659
      -108.99530450
      -568.48881062
      3005.07409617
      3522.12099050
      3653.05080390
      1524.60269712
      -3934.34940375
      2877.58956884
      6939.28255712
      8911.87408762
      95.57289421
      9691.80653099
      483.96126896
      6623.71528428
      949.74096840
      6450.55966200
      -3288.02941634
      2337.34595742
      4095.36830152
      4043.72792898
      5735.55799295
      203.47330155
      -1702.07717301
      -784.67964203
      2013.34524043
      5442.68486267
      6154.07857450
      988.92397576
      1926.49187110
      2583.52531815
      2973.10365587
      2752.66736499
      10108.78605152
      3559.64392466
      207.48064868
      -518.70479520
      530.42187203
      5432.33496748
      2278.55988473
      1575.94430502
      -22.38059904
      -807.46550046
      -5088.68147846
      1900.42182564
      -1260.98756113
      349.58406108
      -214.20370167
      1913.91799088
      2031.19772928
      2215.28247657
      671.15401250
      3356.36978565
      2314.43887818
      -318.32989148
      -3136.21023512
      2136.64095202
      8515.75240902
      5828.59910666
      2683.61132388
      -3711.27901876
      594.96595416
      1776.30362804
      3196.55897047
      1826.36569259
      1883.31569449
      -453.22793278
      -1232.06833007
      -368.51200028
      -40161.08078057
      2273.91203104
      6725.22368374
      1931.95930394
      7458.67452862
      2513.13851109
      8126.85626992
      329.06362687
      142.35993981
      2366.56874090
      4794.89593786
      1951.90871736
      -588.47766652
      9354.87549787
      -1917.31158910
      6908.94079109
      11009.73072674
      4586.17088293
      1758.12140448
      279.05113324
      4404.76941612
      2730.77665211
      1487.38549796
      3314.70040850
      1574.23889024
      -4020.89767752
      1571.53165225
      2307.22325046
      4313.68926316
      -626.13946347
      924.07493985
      1163.52523828
      3057.02269752
      4560.11512188
      2804.34323361
      -1731.11873443
      -219.71847209
      4194.98826378
      322.92364060
      82.80085246
      500.03478333
      -1393.34006352