<?xml version="1.0"?>
<VTKFile type= "UnstructuredGrid"  version= "0.1"  byte_order= "BigEndian">
<UnstructuredGrid>
<Piece NumberOfPoints="5123" NumberOfCells="5123">
<PointData Scalars="Pressure" Vectors="Velocity">
<DataArray type="Float32" Name="Pressures" format="ascii">
      90.13282396
      -18882.84534960
      -24094.34638677
      -25493.28008765
      -24261.99582305
      -28560.32273856
      -29272.80775739
      1803.11443731
      -321.07732082
      -23569.16128140
      905.53014656
      -22140.43487678
      2003.28569618
      1941.59748862
      -20993.64946475
      2115.91319603
      -178.88576048
      -27025.94562458
      696.95405030
      571.55720235
      572.07472961
      -1235.49962425
      678.77629239
      707.16808130
      -97.49568179
      447.19751580
      -46.37183778
      -285.79976436
      -1740.79627138
      1017.96016036
      397.88785139
      -13.08885258
      -386.30605433
      643.33852206
      -4283.30876981
      889.28977693
      242.14397076
      -606.40039003
      943.90940628
      -112.50278776
      388.45290377
      -753.35447125
      390.20562180
      -1025.72412159
      397.89958428
      841.11866635
      129.69044955
      -529.64007710
      225.99266761
      3.79650394
      251.43870386
      369.62459612
      130.87048686
      384.51492485
      6.41728785
      155.61543175
      70.41533615
      -92.49279422
      652.04564103
      -425.42848561
      -392.68065471
      -735.59952638
      -812.88170681
      687.65402879
      -36.13694080
      541.72546711
      7339.65334576
      5389.50317142
      497.75899543
      710.85189403
      87.78734776
      644.34303268
      297.29109327
      708.18818796
      828.17400240
      3641.30073707
      2175.62159178
      636.90825657
      1841.05824210
      3018.76387275
      -1730.40413081
      -480.74170390
      338.53261156
      -2805.26414001
      647.30999236
      66.22639558
      956.51628451
      1369.83605484
      1466.82988568
      -2002.40426608
      1513.73617377
      797.25925825
      -1900.18031906
      4623.90325508
      4118.37398437
      3915.04814012
      1413.56089548
      -860.65275172
      -754.80241628
      -588.50304636
      1241.32243983
      -4189.87185363
      1986.25437513
      223.85950741
      126.94011525
      -971.14609336
      -239.47186625
      927.85968053
      -49.55072874
      -733.92492570
      -1271.99805079
      -39.43415216
      -26.53789844
      37.52080782
      -240.96816045
      -537.39420574
      -816.43067168
      -661.25935135
      -357.66473268
      -2216.60734043
      -46.06098051
      333.07114764
      167.96663047
      -369.53662480
      -616.95719801
      -348.46779262
      3.74966727
      24.32989963
      -2018.83762807
      527.91036963
      -21.67142667
      1694.97125903
      -24148.52814249
      2230.12941991
      568.09076828
      262.28822329
      738.79684341
      -998.42537019
      3228.08524281
      858.77729459
      252.79397897
      242.75644749
      2083.24406786
      -1093.88819101
      1613.04209114
      1106.74290416
      445.36689865
      820.36454496
      1704.46812085
      891.60386598
      1453.28669359
      4444.79343208
      -3609.68894306
      1073.55862198
      404.04518139
      945.94197431
      1221.02980855
      620.08911953
      -883.05001371
      540.31632346
      3650.30370737
      680.03851874
      -609.02687821
      -914.03045088
      1045.70318987
      4118.03907560
      -2002.24843656
      1573.52770389
      2685.09622772
      1218.11840165
      1979.22234915
      2620.54176240
      969.61956227
      685.31010663
      2135.72223381
      4430.97481812
      453.96337075
      4661.07055532
      -2184.11445744
      -4010.05948147
      340.94221914
      1545.28727000
      -399.99771117
      1790.23560447
      -1320.65661787
      289.34629680
      368.02239906
      62.07333858
      -1342.56673394
      1915.78043095
      132.62111641
      596.87745120
      -399.00043038
      286.44097289
      26.23954047
      25.60064337
      -457.57816031
      693.62892789
      -18716.99888393
      3422.47379139
      381.62565639
      4413.79752678
      421.90576415
      4696.27999528
      3693.87792600
      -22.41162222
      427.45845920
      1036.60591750
      398.74789051
      -458.10486359
      493.00556175
      265.53519095
      1787.81729561
      399.48978859
      1306.02378290
      2227.68472485
      3061.28755694
      1498.77627223
      1156.02700652
      1637.85386883
      2037.37291746
      3207.97139359
      4113.73634879
      5012.68538212
      1374.99699494
      635.78032142
      2233.47997738
      1628.78535505
      1177.81824982
      1055.64011235
      -463.28942865
      -2029.60321219
      2943.71721061
      314.00299831
      231.42271767
      1219.95060676
      -1036.60880064
      -886.38739434
      -512.30174464
      -71.73343846
      2009.25632149
      -1764.80290143
      3292.74718845
      727.43204848
      -1487.85645828
      4118.14104779
      1471.13203869
      349.93276856
      -43.98432425
      3530.22769076
      -11.44521066
      2573.86625510
      2071.35834912
      158.40696789
      -1415.09373194
      -319.46026162
      -1013.37380756
      -183.13637728
      -554.42309193
      149.12824039
      -158.09361315
      -2144.32523469
      -374.13902178
      -271.75644398
      -27399.67254656
      2010.40260020
      2021.16599829
      1090.01510603
      4130.40456959
      3731.59723452
      1152.50825522
      2832.38201435
      2529.93085116
      -177.63756280
      2984.88617633
      2840.27766334
      287.23060467
      4060.20637136
      1803.08041569
      4090.56062533
      3976.30102534
      481.08790788
      -860.92619130
      3938.42406912
      2971.59500118
      1180.96882457
      -710.46975812
      -553.37120085
      5866.42832450
      1482.98457469
      665.13043979
      4001.11265824
      4200.07631772
      729.24852290
      1704.93774569
      3767.56813064
      4518.26817852
      2505.00635098
      -713.65513169
      470.98136864
      1407.01716471
      2517.87103945
      3739.35505194
      4034.35046222
      2268.60219545
      -2429.97763785
      -474.64587246
      1829.38140201
      805.23196489
      187.30590683
      548.29283467
      -1981.66129549
      725.86798516
      1475.00140698
      25.25827243
      -67.62430547
      -889.32862933
      1995.79508047
      3120.06408379
      1035.26858069
      3281.13714806
      1929.96344628
      1547.95375881
      826.21674541
      2618.52062738
      1763.39550513
      -3892.74502578
      -240.53134750
      668.53163105
      910.01876022
      -20980.90566408
      11493.07820422
      5869.41656460
      2842.07172016
      2718.27666970
      467.84952640
      1572.66744809
      -450.83394911
      2550.84685671
      6176.57951128
      3401.08103030
      1532.16922973
      2674.14117480
      -188.29762764
      1407.50415078
      -2793.73130340
      -38.37763752
      1756.81804860
      1029.21034722
      3290.99400238
      82.18018966
      2206.80174669
      1691.73209253
      -2152.41151826
      5251.81234776
      3258.52958468
      155.84602769
      765.91963732
      1944.40130310
      2607.44268637
      -3781.23482351
      -2172.25888590
      1511.46915491
      2687.36766683
      3380.87995642
      3497.28863797
      7034.45264891
      1091.23012441
      1482.45157930
      1710.71620125
      3015.81296649
      2687.10566234
      238.27400332
      1638.49082213
      78.97145607
      -168.39926578
      545.13839799
      3983.65885553
      2896.49004973
      2009.79682265
      -279.94598989
      92.50798843
      1106.57726544
      5.23929106
      553.82199993
      438.52287546
      -1209.48673651
      314.65390198
      2530.99574155
      6.28152145
      1814.46115208
      3308.90498249
      -1348.07290401
      400.67395513
      846.89444012
      554.50747751
      5540.02731289
      3875.71600462
      1209.65878921
      1213.01507162
      4796.25994413
      10734.86824364
      941.98537811
      1569.08241379
      20365.66249548
      1408.83455231
      6728.58696640
      3571.67816136
      4449.39676108
      861.91459662
      4454.20206459
      73.61876627
      501.54155169
      -3975.76458195
      836.27193341
      1997.01214893
      2052.80631307
      1809.98907483
      1783.81002162
      6754.86192179
      8283.17583684
      2388.60120921
      2030.45056836
      5073.78293214
      1833.69065638
      -2150.75648553
      5739.26077929
      -1489.12795140
      6659.45122894
      110.21629116
      282.70891437
      -762.48372080
      1181.02391419
      -913.44073659
      2496.91286457
      -405.61165645
      1172.44137753
      2939.16833862
      1988.41459092
      4726.35520667
      137.91080752
      1304.47663094
      838.80838785
      4545.65920900
      -1062.33668490
      2258.11345285
      4377.51582961
      2854.86905596
      1897.78441096
      2374.78534628
      1557.89991952
      515.50595306
      438.15296002
      -519.03831890
      1394.41946610
      1374.37605837
      2255.46479420
      -234.61398445
      -239.79585541
      -512.82241764
      808.46001189
      661.74972876
      6751.23201314
      3895.25524948
      3061.85960553
      -504.13738283
      11412.37310516
      7787.63601843
      9866.25622942
      78.34155926
      1496.35314207
      -1955.27090573
      8126.18834895
      3568.24111202
      379.90361672
      1743.01699156
      6591.36274571
      2801.35615711
      1690.17841813
      -745.44845381
      338.20012255
      7716.90713802
      746.76497564
      129.83186414
      5232.03722433
      915.66660805
      3724.27575827
      2286.89788188
      2901.62903739
      4430.70357586
      2147.94950192
      4063.46636267
      724.68412631
      2285.81847113
      -1306.29333848
      398.93305165
      1444.77400290
      974.95107156
      871.17662747
      880.18726895
      1061.02852135
      1238.04606561
      3579.85506222
      -318.00247781
      921.82126614
      28.92303526
      2564.88286819
      4491.20452169
      2042.91911529
      -839.42733758
      19.90057177
      1833.56955027
      2972.60077123
      2169.94489810
      2818.48265377
      1506.47127119
      12.22112384
      -522.77420397
      1651.68533382
      119.85078033
      1479.80457052
      -500.35503812
      2632.11336320
      2374.99413216
      -1183.36686609
      -430.95857113
      -805.21025631
      771.52449791
      -21336.21804100
      9283.25552585
      12381.10138699
      5680.67403639
      6351.28477958
      3982.02643595
      5137.62261573
      4858.92565784
      10094.02125602
      2229.00768470
      3695.62104993
      9496.59522579
      3525.34006256
      2328.97003252
      -252.36622065
      2405.26471941
      5594.45883690
      4805.38257973
      1299.15634238
      2556.32058622
      7687.44288999
      2448.75879196
      264.84283687
      3247.34751545
      3876.60881362
      2580.92976301
      4667.07711862
      8761.85063534
      2413.45360663
      589.05243114
      5494.54223280
      1794.39124546
      58.85724097
      -1606.62663824
      -2021.83809228
      859.21800372
      287.66184280
      2028.45673009
      256.19432541
      -1207.22440527
      3062.67141266
      -1729.54219301
      635.76394610
      994.14593052
      732.62396012
      1805.73620338
      2090.30781774
      2068.38679274
      4167.32888691
      1747.43966346
      2212.89382916
      2447.97937327
      287.61031352
      -428.42715286
      -2132.12088781
      -1142.09754267
      1532.05629360
      3335.01946093
      1425.03795954
      2017.71754328
      3063.01130221
      1833.12522426
      -599.68026612
      -532.58368780
      -590.07134644
      -330.66801874
      18239.62388618
      9516.38150161
      5352.30251032
      3163.38099349
      1283.67861443
      3826.61077319
      6922.36606228
      2369.17763169
      2565.87751626
      -5475.77844619
      1547.84353565
      5755.34227954
      3464.38953573
      6739.12502195
      4318.30995425
      4002.13185163
      4615.96029565
      3323.02415927
      1466.47440597
      1566.09251163
      90.57505907
      687.35850698
      1855.77795929
      671.48437876
      1058.27417004
      951.07025974
      1203.31659366
      1503.38241491
      2402.90693512
      2715.28822808
      1760.97771947
      2644.55439578
      1299.14316646
      2792.41346344
      1956.91322877
      616.60508028
      1734.76796953
      -398.36249670
      1628.30480853
      -501.68361324
      5257.47012164
      -2141.37171515
      142.45538751
      -3760.98107240
      4498.10477591
      3766.30194353
      2061.74442807
      2722.33540128
      2032.36747639
      -307.81924991
      -301.28276095
      288.95135813
      3617.73046475
      1004.90629751
      967.59797583
      579.21548035
      -1128.20620766
      1011.90746202
      -57.59694006
      4007.22469258
      1135.14301974
      1426.41313614
      921.62600736
      -616.97763573
      92.62976824
      117.05524315
      -18378.22992136
      -4332.27568323
      5108.36975113
      -1766.42009238
      769.78897876
      -727.78439705
      2203.08927932
      -385.21971779
      7850.24239616
      4851.79193212
      1991.42314381
      3058.66593141
      2222.20652650
      6498.94336278
      2338.81504682
      1491.57891053
      -1631.98549180
      -236.30669096
      795.72633449
      551.92202524
      8263.25651314
      2787.91298223
      6521.65381476
      972.60253376
      -1329.19609079
      2733.38601637
      -1413.22058861
      3896.63832994
      -182.34349035
      1662.37087044
      -917.46513334
      3252.66902324
      -2125.61751105
      10326.34150455
      660.83537851
      2495.91720717
      2094.20543184
      2587.50627717
      5170.69890972
      5211.53292000
      608.28020647
      897.21207659
      1177.99259053
      -6614.82075496
      1775.72089878
      -1029.55134784
      3386.96142302
      5827.88084124
      3687.01150303
      1810.98921815
      -147.03548387
      546.94500601
      860.11183958
      4507.89923053
      -6186.86524590
      380.66336144
      1741.90799049
      -266.05015789
      -422.87408274
      -284.35496663
      821.66446837
      2996.72786297
      956.25924548
      416.25485699
      582.49660591
      2.87045686
      -7343.16366142
      4427.12756408
      10136.09635001
      3531.09057190
      4715.68042338
      227.30441788
      5477.50431089
      3344.16247672
      3768.31203985
      1048.47764266
      2793.91812014
      118.30825022
      664.81527595
      1671.02233489
      3882.62135193
      2173.64975774
      3336.78592788
      3741.82814627
      1705.26405433
      1334.37365617
      6131.27202392
      3346.67519063
      2540.57906048
      2546.85215069
      1790.57727656
      462.03993537
      4167.28357674
      541.44412833
      3915.36319033
      2116.11465253
      -558.55667279
      -3397.04324290
      124.35481939
      -560.53762402
      -97.24051671
      1281.36407826
      2117.41504639
      1508.39191766
      23.69922492
      2091.43163644
      2845.80138770
      1300.94109745
      -1635.11838095
      1966.54604780
      1901.42172445
      3098.18259951
      446.13537868
      1011.93833274
      -1099.67286493
      -232.14126256
      3101.48227539
      937.48013005
      -2661.65441802
      1639.35939452
      1176.52370635
      1051.89509871
      852.16369657
      1152.99630311
      434.32933224
      -819.13462961
      3010.23676906
      -47.52732104
      1154.41197337
      -422.89866510
      469.31316639
      -134.24271029
      -4591.77656777
      3639.51154394
      2971.75616093
      3276.85722184
      2393.55141515
      4269.85649166
      7276.10930982
      5605.14729594
      5014.40447532
      865.16984466
      1910.22602545
      3783.47243677
      1638.77948778
      2763.78460050
      1401.44133293
      68.74264449
      946.05467544
      3199.92173685
      1364.32279508
      2507.06843887
      299.14415487
      -1601.77019004
      3652.86469077
      2764.95798066
      1833.93112677
      1920.57039065
      1236.00116066
      512.04584850
      1935.02157558
      3818.67901773
      1548.26223157
      2025.31912920
      3013.45689965
      3021.16699833
      2868.88018818
      1836.06357735
      3211.56006940
      28.17477258
      2866.59330528
      230.93026208
      -1142.51109171
      -460.97510093
      1863.96712037
      1699.94507176
      1095.27623676
      1669.49085938
      828.55718483
      894.95305043
      2191.67998414
      -460.83098952
      657.85206193
      -662.40148670
      1422.76739108
      -1213.07116668
      1829.68713510
      -880.88297943
      2621.99557732
      1762.99522254
      -829.47487601
      2200.15225270
      134.62846491
      81.14414171
      1193.87206869
      403.98842869
      193.76876281
      196.42613030
      -7886.36499036
      1310.51607295
      1142.23815064
      6175.64053966
      5412.34961769
      3879.79336813
      2313.50138649
      -89.55119318
      2832.73424403
      3359.43429771
      3384.38602100
      2537.27904118
      2943.52177754
      2277.23162898
      -333.68723779
      5875.71443901
      -388.20098575
      6301.52245859
      818.70678033
      766.38718124
      -438.75891628
      1843.40073202
      65.86370032
      -1837.78161769
      8724.16770052
      -948.02768308
      9632.59964881
      7223.02548261
      -1732.39774768
      -43.94099713
      767.55713990
      1495.75363050
      5576.58371727
      -1089.32630676
      886.83487320
      -49.75712259
      7945.13509774
      1494.34495678
      -4762.99381058
      1415.22031042
      -65.40531205
      4373.41961851
      637.50584295
      1577.04641689
      988.12271104
      1977.41860637
      1046.13040089
      -2160.15305147
      -329.37945185
      -1113.26296351
      664.75627762
      1131.94766948
      104.13414067
      815.42909211
      1850.43161814
      2217.95628486
      1395.19352066
      1015.20815373
      1068.34821370
      816.99304625
      1089.56334218
      -20.58712278
      837.99437355
      650.10335736
      -170.87343420
      -413.47677244
      6352.94158923
      3221.40420196
      6838.33139414
      6413.97951900
      7495.92282072
      705.29103151
      1892.54529860
      1814.46368941
      1168.21245429
      2541.89242275
      4254.90433576
      6094.80785871
      4141.00479927
      8460.67781098
      2601.35651106
      990.96990153
      4406.85385939
      1727.02481989
      3248.92335177
      3454.26164750
      558.28288057
      2602.43880319
      4964.62775370
      -2513.67782202
      7860.46385418
      2741.97883583
      3880.17610501
      4093.51163727
      6702.00495557
      2869.19176937
      3119.76046842
      3768.17239328
      6945.72848045
      675.74289906
      1718.16531469
      6559.91164491
      2614.22902806
      2016.68689136
      1892.32491313
      -1292.69004480
      8306.53354241
      1150.99693157
      2206.53809755
      71.98227096
      2473.07081311
      788.64855721
      6795.20084663
      366.49777255
      4297.58943024
      -240.66440750
      1021.80176700
      129.76757370
      393.68526543
      1333.41996517
      1225.46987888
      2214.32399795
      4509.72835481
      1538.53600885
      -664.44158389
      444.65443913
      398.87179264
      -1050.00331604
      259.89798561
      -620.61700733
      399.39103214
      1204.32085191
      -28338.34729544
      3380.31375150
      7372.98090202
      966.37644543
      1027.95944019
      1323.80729757
      10130.56544351
      2770.78986215
      4312.57560492
      2200.81160141
      3718.31690271
      2657.92719811
      9608.30603989
      5411.16232689
      1539.54554785
      616.85824338
      1732.44077305
      3015.33309446
      1718.92269703
      5311.76177089
      4723.18855415
      1284.68635267
      2346.46013374
      6232.56563350
      5372.65373193
      4399.03195978
      6378.90477259
      4461.12009472
      8534.02236774
      372.21317261
      10155.44098334
      1966.40539786
      4870.99747274
      1021.21069338
      6997.22052360
      4127.92198851
      3622.47966331
      3208.64194629
      3737.43206817
      5314.71937114
      5569.59966168
      3310.30359110
      2719.86396914
      3454.53358440
      3333.58817938
      1858.62313416
      -2145.94726577
      1013.87939397
      -2173.77328374
      -2566.21687532
      1416.37679274
      1220.55869920
      875.18003188
      -52.71502251
      -1429.46906625
      334.74771619
      854.82631478
      1204.88084730
      1184.80192237
      695.12874596
      1172.08219057
      1877.34545704
      720.34586029
      151.89542991
      61.13381802
      323.73255490
      4974.06282670
      2832.39195302
      1338.76655753
      5142.80535591
      2014.87792698
      2658.40912277
      5729.76167496
      4178.40861549
      6904.28396319
      -1605.22265657
      2845.03166764
      4909.58013512
      1271.50188163
      5719.60783748
      5300.26177323
      6613.00555959
      3465.42265704
      4273.43738896
      5802.82392600
      511.83026150
      2995.69095902
      3444.77829918
      4336.92012542
      11298.89889949
      3015.58526351
      2039.89489892
      16420.34273136
      5347.48443813
      9949.58105283
      3825.56386240
      6288.12688730
      8223.60744136
      1135.11208745
      4031.88908325
      2174.59437255
      5820.35734931
      -155.87697305
      9233.06068362
      14394.34817375
      1267.65025557
      2179.69498980
      -1541.56353869
      3205.51858574
      3970.54747132
      3143.44218903
      9000.01012626
      677.88510312
      4783.51662853
      -327.11717866
      1350.69807866
      1607.52671764
      -1336.42587258
      156.88229302
      412.33773521
      888.59826018
      229.42580221
      -455.24871958
      598.69881962
      -1351.44986900
      -810.66640576
      -519.03433940
      726.18692066
      1007.97750525
      -114.60805065
      350.81464838
      -5942.66307596
      6163.73925791
      6878.38450313
      2474.54811765
      984.94487669
      4044.32145732
      3811.67702394
      7611.44205495
      1132.56134377
      2246.47196671
      5663.47155102
      7631.80051459
      -1441.50922826
      1762.52235159
      4092.97340400
      4286.84208057
      9201.59281042
      161.61999406
      4404.95418690
      4318.31422664
      1684.25204653
      2138.86334374
      2726.24806630
      5128.08172093
      2559.45109744
      9545.70406226
      8937.93722019
      4438.97826435
      5700.78838845
      10532.85960858
      3720.69776244
      6317.83260281
      5200.51285234
      3300.30210131
      3750.89240091
      3339.79492586
      3973.10122328
      -1015.63846802
      -706.29404455
      959.43455775
      215.10540288
      11207.91710934
      2167.22044027
      3716.14267289
      7261.18354756
      4026.71132536
      4402.65969031
      1747.29802429
      6037.89487145
      4650.70428327
      7858.59796982
      3309.08737494
      315.88920493
      13.39030687
      3683.32867968
      -2432.14490730
      -425.73587380
      2554.49997480
      922.38704832
      -1347.82098662
      171.39118962
      1568.40781608
      -497.35393970
      1023.86963513
      2447.70093234
      3479.87484027
      606.86050080
      -30962.88851667
      6731.66850114
      2042.03858526
      4196.36631366
      3860.71508170
      4232.85602196
      3788.12293942
      3731.64106994
      2092.87375334
      2248.37442169
      4123.60855334
      5716.91143167
      5954.11743564
      5691.33016393
      7025.00198782
      -1315.09776558
      4548.33190647
      2174.27556318
      2237.01555565
      3064.19193504
      1176.64487828
      2118.55394845
      3983.83394125
      3165.75086428
      3653.63593037
      4514.14103591
      7335.91028683
      9329.09594656
      4478.24321095
      880.59221080
      3756.93370862
      3853.07302723
      3062.40477731
      12128.71768880
      5750.22817234
      5089.14778472
      3031.34725936
      4857.15806765
      4836.72750817
      4081.17805572
      -73.35373996
      1445.88001481
      816.21118415
      -1442.02791298
      4588.28493632
      1267.37452364
      2607.71592028
      -943.83820797
      -1485.09297945
      2391.46506377
      4890.96451697
      -1808.82630766
      1420.59860784
      2343.70765264
      413.07324765
      -2126.05931888
      361.67627402
      3472.79905396
      -774.90887142
      5914.23175379
      4189.43530235
      1848.39644796
      -1795.07779005
      -1740.40703392
      -759.97253107
      -2114.07972279
      -19317.15986296
      -5224.61920567
      4305.44819412
      2736.60779243
      2855.38044917
      10244.75270160
      2354.82785619
      5530.85474797
      6107.82123220
      -189.64240541
      3875.95420496
      5783.85070360
      4142.89910541
      4489.48079668
      8084.69499763
      8931.29697493
      2796.17092507
      2228.10452372
      1404.71095510
      3865.69017488
      5314.42955028
      5245.26993302
      2440.48492275
      9098.62682864
      4096.03685406
      -488.10187074
      1647.87523438
      2314.58336659
      5380.33990475
      2107.32612513
      2476.02183978
      7252.03728315
      9746.35916731
      11268.27728848
      6160.43892582
      561.67652799
      5941.20989994
      4064.10433389
      3566.56189115
      8105.01136488
      2296.35409608
      2246.54021305
      3466.84146318
      1869.43532324
      383.78126859
      1454.57466550
      1891.36175762
      939.65220224
      994.08392599
      1386.96498663
      584.38624305
      2407.57502406
      4101.12854000
      5556.64311262
      2640.44553185
      7212.72606959
      7612.42821464
      2576.20024561
      -253.47873521
      1509.83182627
      105.10495023
      -1156.19672366
      8511.74626038
      -1366.62994406
      10938.68179566
      2827.48499827
      3211.75720808
      4411.91008524
      2940.80194496
      2956.77907796
      2572.74933352
      4803.58158370
      5555.15775003
      8344.79006314
      4347.86767857
      7599.59860378
      8088.01219234
      7322.32214619
      10060.69275750
      7510.55761981
      5593.75629127
      3588.08451395
      7623.34926333
      3705.81545958
      3354.79414024
      2998.37863735
      -1262.62219312
      1548.59014406
      1542.66574266
      5515.49103740
      2100.34741186
      5684.28282355
      6976.37554016
      3344.23347260
      10656.65545377
      1933.85960613
      1281.41724214
      1553.55002876
      2251.46418027
      3740.12069966
      406.71777329
      1287.15410401
      5122.01939386
      -1194.02414070
      2617.93213626
      -85.21790318
      1835.54579533
      5245.67308664
      2124.97863165
      -1160.85137201
      -1017.91023409
      2040.98816505
      5444.85950410
      1172.20333775
      2600.43663619
      7053.21832162
      2605.43120940
      8507.64841406
      1986.96312037
      2606.36641315
      5239.75291830
      2266.49879164
      10637.35196363
      3500.06264589
      1720.31716292
      -3113.09671744
      -6419.76694448
      -3452.02696940
      -536.84435089
      2524.61345811
      -72.72445829
      13625.18749459
      9930.81877705
      3587.29659583
      1799.10863126
      3933.63563673
      3116.41772713
      4574.75855658
      3436.18314710
      3969.72936274
      5312.27328466
      8157.43970461
      3343.56276997
      3369.90370925
      9033.33084028
      -1269.93837015
      -1178.45271650
      1743.07152095
      8360.47334734
      5837.18102783
      2726.22659961
      5726.91023127
      3802.56611869
      3724.87639707
      929.02770793
      7672.46872159
      8658.16465886
      5230.64877410
      5389.82677040
      9018.66472427
      4414.59574181
      7391.76343579
      -59.38279283
      6379.98752107
      2341.74106439
      1164.41375239
      2420.97742780
      5683.21624835
      4970.87032999
      312.87766920
      6167.78173003
      -4915.88430360
      1074.62998551
      -1636.38803825
      3037.39355062
      4392.86577748
      141.81185140
      2707.61604755
      5200.06678857
      1872.13475300
      -946.15208933
      602.61419652
      553.44975485
      -360.20764554
      3857.37330099
      2841.48087684
      4704.55942716
      3657.72328499
      4315.69153878
      2747.61233161
      5211.99626926
      -930.07202360
      -2052.64752369
      7642.76875862
      3298.53184662
      -193.20312301
      -561.88516390
      12623.01336128
      -40161.08078057
      1897.27691690
      4268.12243987
      4245.04994706
      4388.90498034
      -1663.62646127
      9857.09890799
      6126.08604954
      5239.77834916
      2178.37970059
      5787.17572610
      3445.53948525
      4289.26004257
      7773.88902815
      4573.13349481
      2746.86696563
      6669.04723204
      634.41781546
      2927.16563871
      495.29465047
      541.41985527
      2805.58718425
      79.95472033
      427.33250301
      3796.58964755
      861.68600598
      1747.32791729
      2732.33512357
      4431.83831542
      1097.71626210
      7776.99220613
      2713.91067054
      -160.25151167
      2524.79030994
      3115.28617192
      1831.03789196
      1064.01516745
      2241.14229112
      2519.12909702
      973.29880279
      2803.72761352
      8146.69625942
      6531.20424307