<?xml version="1.0"?>
<VTKFile type= "UnstructuredGrid"  version= "0.1"  byte_order= "BigEndian">
<UnstructuredGrid>
<Piece NumberOfPoints="5123" NumberOfCells="5123">
<PointData Scalars="Pressure" Vectors="Velocity">
<DataArray type="Float32" Name="Pressures" format="ascii">
      1400.94011352
      -20234.67547348
      -27269.55094466
      -25493.28008765
      -24261.99582305
      -28560.32273856
      -29272.80775739
      202.21025113
      171.86608320
      -23569.16128140
      142.21490402
      -22140.43487678
      2083.04669386
      1782.24644407
      -20993.64946475
      822.24430840
      616.20854768
      -27025.94562458
      2657.47605585
      -485.76379483
      -1276.21678336
      -3014.63146014
      5870.64381287
      3857.70923884
      2303.39332424
      52.01369366
      -1001.87560723
      8018.31661857
      935.63360561
      -8280.93209872
      6126.51402120
      520.21440577
      9451.63649533
      2273.12404729
      997.96061838
      6662.82322916
      5146.07699347
      3609.39405420
      7618.53397158
      2352.13711205
      -1740.39012088
      3962.89381711
      1337.67285039
      -3677.69436762
      -3813.53591161
      5412.45914706
      1949.98135775
      10368.98774472
      518.43682054
      2661.56270300
      3852.26670219
      6369.37359302
      -355.69766781
      3862.73679713
      -3348.35411060
      1615.54767288
      -469.83722670
      1148.17253099
      3073.69203155
      3741.88886449
      10161.44983064
      -3108.59707071
      244.75070025
      -2317.19563963
      -3823.79744469
      2947.64878656
      5763.37909387
      5389.50317142
      2978.80525800
      9917.60807536
      2330.25876426
      931.04831998
      8626.87980872
      1539.44042943
      58.34353074
      2264.17877059
      668.77890768
      2635.24701912
      335.49281282
      553.59987318
      26.55750742
      424.07424344
      434.85844508
      396.73165872
      644.22224635
      459.27552935
      801.53439844
      197.67811857
      3124.50435539
      1843.96342099
      -3031.76837652
      3574.55641764
      2257.03159722
      -250.04518598
      4450.96852446
      -409.13657473
      7376.78444795
      -1496.90387196
      879.69295971
      -3601.95664135
      8623.31131726
      6674.05135932
      -2897.24899750
      671.24544288
      4659.38868942
      6856.22720953
      -211.97614524
      -4419.93411361
      1000.20245496
      -1723.22280915
      5938.23968588
      3834.82348966
      344.19160833
      15632.40177661
      4078.20191774
      -4208.04834348
      -6358.24717516
      -2344.44518706
      1253.15566973
      2744.43894282
      1658.13702899
      -6224.83051225
      1027.45710023
      2121.85568170
      -360.15844467
      -505.55623674
      -635.72498247
      -2952.27018681
      -2430.38553697
      904.13008996
      776.01366087
      369.40451720
      -24148.52814249
      -563.73090428
      156.56849030
      3371.06639086
      2021.69821534
      7485.90503469
      5224.47094857
      457.57580324
      -1544.82286075
      167.27424298
      -1625.40717851
      -190.46132736
      3364.65948211
      -648.94509214
      340.00808320
      -376.57174943
      282.47376191
      3057.82273619
      4183.05973234
      630.96752863
      -52.26744300
      1418.88040227
      2839.45880036
      2497.19240344
      2117.11380254
      646.47683291
      -342.54068055
      7186.74711455
      2238.95181388
      852.10720379
      1924.90001876
      1313.40799207
      3930.83418733
      3020.76324748
      1690.38607046
      2516.78476132
      3941.04145195
      3466.21065398
      4904.29535844
      -955.58906668
      101.87886849
      985.32881253
      7225.92318840
      1541.06216595
      2699.61722055
      10021.07839295
      -353.26178990
      963.11317734
      4643.96020835
      9368.81704483
      -3580.69452380
      3292.92292763
      -611.26015901
      8.31870295
      -1029.03075245
      617.63406131
      388.87024701
      6253.75843135
      1133.33186248
      2272.26864112
      -1554.32170252
      -1130.31736364
      1886.15495707
      -211.89099999
      2020.83202885
      1558.43403957
      -18716.99888393
      53.07496998
      4406.48298209
      9830.33631019
      3380.18200246
      1242.34909536
      7764.96511938
      2381.26211808
      2417.80060227
      4851.77226345
      6001.45342236
      5684.10739161
      8457.36915337
      5033.00445330
      -1854.81660697
      2582.66012271
      1096.00577189
      301.78131572
      2806.08927223
      -295.75341455
      4091.36353270
      4614.49221096
      2735.52520257
      -2990.96779763
      -346.11945386
      7261.28679670
      2605.25666878
      1112.29003310
      1101.14271930
      4281.12189077
      3113.04657436
      7818.45421929
      1077.77057893
      766.66467758
      4293.46023561
      8035.33060797
      687.26934418
      1496.02550674
      1050.26994778
      4704.12156013
      112.63187588
      5189.23986120
      1330.54240411
      -5350.74084528
      4750.40599770
      8672.95911007
      2483.78662199
      -7168.07600797
      -2457.55014041
      -326.23692718
      4098.23786452
      -159.48022264
      4152.80019936
      -238.55775667
      7748.00388520
      -4828.13665538
      376.92378411
      -3025.91698917
      -436.00112298
      3204.48426961
      345.59566229
      3294.53370301
      2165.67263660
      1189.57169267
      -41.86427414
      -5938.28628991
      -27399.67254656
      7729.40220624
      4535.32724245
      8914.96006118
      -3257.65863238
      6395.25761714
      4019.64557803
      538.71586943
      7109.73745925
      3633.35141807
      2350.46709951
      685.58011416
      3493.00677347
      10585.21774340
      1218.11222271
      2950.77680759
      -3878.67486279
      1969.42858170
      2371.26004962
      2274.34186330
      3672.13583353
      4431.79569265
      4894.44308214
      3445.29204771
      582.97950471
      1025.44017834
      762.81035712
      -33.01148988
      1952.81852954
      1528.49991351
      518.55872814
      1172.56655464
      501.01780545
      -50.91784303
      1003.52545261
      2445.35944792
      825.43955540
      1658.44149289
      3189.66996768
      631.56990457
      4589.47866671
      2609.21125079
      1567.82497485
      2465.87495092
      -3380.77216976
      -1189.10062645
      1407.46170640
      -185.11300413
      -953.50335955
      2035.68894770
      -3239.59016009
      2250.82570818
      1490.95522740
      530.37268143
      2251.83188441
      2559.04364213
      4044.86806070
      -53.95793332
      175.92237355
      65.49094300
      972.04531585
      2603.47674821
      2473.07576359
      954.21017524
      -822.60338033
      6784.78677706
      -20980.90566408
      549.52144859
      4970.46098974
      5369.20601600
      8054.61996397
      3002.79285656
      5305.34101747
      10916.09412417
      2477.96172979
      9168.13500361
      11938.25675529
      2790.45726390
      7141.07220051
      7249.36224471
      7030.15960644
      425.00541238
      10135.08051786
      2950.68104244
      5226.14463792
      3707.95897937
      13420.44451205
      943.52909395
      1953.33299887
      981.56919013
      11360.18831752
      4551.89622635
      687.13535038
      1256.81221532
      786.79323972
      3598.54146707
      1814.69994196
      4740.47274815
      352.44153132
      -436.50562562
      -217.81861505
      4555.29217446
      1576.55569968
      4261.36393301
      1957.72835905
      -587.08857453
      679.75263085
      2352.18506861
      6133.12609407
      3887.57546956
      -1517.35891635
      6473.54468718
      2277.91018494
      3326.91865050
      2942.56435765
      321.62449324
      2786.07578067
      3797.14628935
      7469.51013969
      -5813.19275778
      2423.45535651
      4525.63268241
      1087.46105354
      2606.77886835
      1176.30576696
      810.94704936
      2297.94122281
      2281.70935725
      1110.09315905
      -631.61025067
      2831.70804959
      3803.46322336
      10370.54227216
      13662.99003219
      5914.49494974
      19387.14767786
      15211.26669119
      8606.22027646
      3616.90106365
      6718.44289985
      7665.35773863
      18090.16186530
      5826.12921047
      -433.78334436
      5398.92953313
      1513.79642723
      5482.62625651
      13655.30071557
      3837.61428357
      6929.27052396
      7275.27769213
      8893.51486962
      1407.13255699
      3712.34723875
      12681.01617519
      11428.46102233
      4920.67698645
      2620.84216206
      2402.67952517
      7585.31549956
      -20.05831703
      975.47479873
      4336.34274341
      1542.40083447
      3988.22254507
      4325.88524000
      5030.48694183
      869.21882192
      4430.00605268
      2801.06044075
      8678.89672233
      2514.77034758
      5046.93399277
      1829.86118290
      2887.86775682
      774.86847050
      -93.35195479
      1319.14829246
      -3219.96658619
      2384.76137766
      2656.54201684
      -371.26407170
      -875.09192589
      1325.37960469
      1367.84955586
      3916.01039645
      1357.66703193
      -344.25418237
      3364.56357036
      8117.72129200
      7287.72153460
      1747.81288719
      370.60084970
      1338.27103392
      135.59537196
      2282.75323829
      3233.30907443
      1913.93023556
      13769.45836705
      4264.18305249
      1907.58025476
      7663.65212853
      7729.27477818
      1729.58356388
      -323.88451588
      2454.95763009
      3761.65325603
      2.33367729
      6217.30126668
      7706.00750116
      7741.36903113
      3006.32795772
      1850.25879445
      2971.82209773
      4098.80281382
      156.93914785
      93.68156961
      5275.86379733
      8303.52197898
      2313.88281347
      6056.88527663
      6208.15181745
      13003.34082678
      775.08746940
      6569.60605027
      4252.59670316
      3251.63931757
      4758.94685061
      3204.23453392
      3192.57129852
      6402.89880765
      -2950.83783396
      2904.31936076
      2973.63907873
      1487.95361700
      6279.78866412
      7822.80722285
      1672.18015458
      3043.64205652
      1925.58883094
      3846.43426704
      1727.91898609
      1786.73232706
      587.22416686
      -2760.35948682
      -1518.13625998
      406.66585898
      -1287.35910416
      14.98191190
      1778.69556317
      1245.40569425
      -772.13796488
      4058.48783720
      2956.14341297
      1743.29127862
      2708.25792056
      5671.64165929
      1405.17464923
      2068.72783724
      283.16478681
      2851.51759992
      -790.05372473
      1921.65440055
      7252.48030212
      -21336.21804100
      8472.45850930
      10021.25509497
      -12327.66414577
      7067.26778507
      7496.64505828
      13823.23779185
      6035.59302975
      24874.78553050
      8933.23088222
      3556.48808386
      5315.87431258
      10865.61815897
      3339.14384090
      25121.47646979
      4370.43490703
      2570.78550633
      4293.17636898
      2209.51350446
      12200.62797108
      5912.27832315
      537.56451861
      4941.85367727
      9318.40378033
      5266.46928409
      1863.18567571
      8630.14047950
      5380.21526010
      1543.61456324
      8536.30877770
      6332.56485817
      357.83253786
      3845.31571331
      7526.75521813
      8226.17202874
      1256.00160608
      7910.04942341
      1885.76903826
      791.43131950
      6390.91785765
      2203.45838043
      2173.37629503
      500.68216989
      3436.28919987
      2497.22033714
      2890.69048070
      305.23892515
      3039.25326202
      2314.26106976
      1667.32343877
      3438.25611052
      1480.82367821
      3497.70537057
      5642.32028724
      4131.01494031
      2698.42129301
      -1594.13924015
      1942.70071895
      -397.12875182
      1446.54639703
      -2165.78137320
      836.65512187
      -1042.60535029
      2998.65682190
      1672.79373781
      -115.63345505
      15129.23726444
      -16161.55176151
      -2280.30101627
      -7622.68386105
      549.47782264
      16284.97093556
      186.47488497
      1160.99875889
      11185.87930065
      -126.46989841
      5727.77100140
      8792.71722058
      4937.12844394
      6284.77791922
      3563.96427409
      5959.70505423
      5418.80224155
      2372.18552038
      2567.24233618
      3521.12634797
      2611.87256008
      3685.68458848
      1215.66251725
      3072.47818086
      -1056.94368645
      3144.40400162
      1367.44407731
      2845.99854829
      -1260.97419249
      2059.11899466
      861.56723116
      6228.37035195
      1988.29787370
      -2314.95621569
      4373.20443698
      6770.25969646
      -1820.07352564
      621.37897422
      5709.23298476
      -364.77197672
      440.65447108
      3997.76246383
      7541.30688768
      2260.80241164
      5277.36699884
      2759.14386644
      -5485.38465384
      -2762.00347378
      415.39967794
      1818.90282425
      390.29263476
      4195.68634345
      6754.94355384
      3811.81236042
      984.35157087
      1116.89243169
      181.84023039
      4339.76519272
      -676.43707503
      752.47320887
      -1329.43559333
      -1418.90598584
      -2028.38680667
      -3157.82737561
      1502.91698157
      431.50381620
      -18378.22992136
      -5122.03323266
      5151.48159745
      11378.20045498
      12028.39553762
      3447.89648233
      6655.53045511
      3352.85225946
      8840.81563860
      2019.14388343
      -73.93686343
      4403.90216823
      3980.29515032
      23165.97492202
      6884.51403117
      4685.60334849
      -1251.08694444
      3629.69026401
      1250.63063049
      627.58750318
      2130.01767350
      1544.22540954
      3291.71102529
      694.56010233
      930.33192664
      1676.09361307
      586.21409317
      1285.78775865
      1448.44056436
      501.20384355
      -572.91150459
      2439.48957979
      5156.96590001
      2827.28669716
      2128.46616440
      3174.84128241
      3179.30898108
      3115.07405185
      1415.26446026
      1827.68040209
      3052.69965906
      746.55188771
      3787.43613802
      957.06042762
      749.53172049
      450.12425540
      5553.49639839
      3173.88463127
      1047.78996266
      2827.96227813
      2182.50897408
      1980.36071017
      827.41192147
      -762.23505328
      2045.84195890
      -1533.48888432
      5357.58420237
      2772.44080839
      632.59785921
      -997.13143733
      3148.27361281
      1426.03883206
      -126.63404483
      -838.03116817
      587.24146655
      1973.99343492
      -15857.23209146
      3451.30265497
      5273.94574392
      9078.60121966
      3759.06504517
      6934.58434495
      5640.95599580
      12224.48351769
      8477.95473600
      10977.10060937
      10350.61552640
      8235.81715681
      6094.37366755
      9051.99736806
      123.82605649
      2920.86965148
      4428.16035266
      1985.86095983
      1757.59951617
      804.19634231
      2068.68346952
      2349.82405756
      1859.10907004
      466.68506055
      1340.32361365
      1650.43131098
      -44.11564811
      1700.15099808
      2011.79058994
      405.71722203
      -361.14831557
      1026.56490162
      1903.09775478
      1476.18045012
      2867.53511901
      1901.09642357
      4007.78212970
      2470.43155778
      370.66742336
      1657.87856104
      2091.24152391
      503.69247620
      3954.65722885
      2698.62000463
      3895.98285227
      4183.28369041
      1755.61899790
      692.20817224
      -469.46357696
      2888.30760147
      375.87340608
      1468.34656151
      -3720.45201428
      1804.72263140
      900.69227516
      -97.70125388
      1498.56049059
      1521.70970531
      399.02227114
      4071.50226820
      1139.31489694
      2911.22211348
      -725.79103366
      748.27699186
      1297.88208436
      303.76723305
      -7787.32085237
      10124.09570978
      9997.15394636
      7596.32169946
      3809.20562487
      3565.58784507
      5658.50371746
      6290.03775532
      3382.23765286
      7674.86321293
      2526.06519174
      2731.98369049
      2361.37161703
      3478.57912211
      2575.56812487
      1705.72997518
      4018.14000706
      138.48374218
      1936.37367896
      2395.04771434
      1281.59999236
      3434.12324038
      187.72177567
      1174.92306666
      2332.59062782
      -44.08437873
      -172.62389694
      209.96115243
      1181.56655847
      1408.01260146
      3349.46531183
      40.23502647
      1150.62396358
      2989.95129868
      1166.12892897
      2345.71363464
      2033.46523329
      -1061.75857463
      1678.43182173
      1538.00150417
      -377.52746732
      -575.36131517
      478.13704509
      -1239.16862022
      1462.17917180
      3256.25037068
      4402.81460948
      1226.67730921
      2476.36651345
      -230.27526188
      -1360.56372981
      854.41806802
      3455.11894078
      2519.09218286
      3601.86752529
      1122.58562794
      2794.26205256
      2260.30012834
      1675.66024121
      2815.53605893
      3708.43410785
      719.92755936
      3373.11448150
      2392.85434893
      3951.15359331
      1985.94854746
      -7886.36499036
      5648.43076033
      903.86727012
      -25366.52925869
      11786.32096343
      4239.00210915
      5431.98529087
      8278.53805993
      2664.50714774
      1256.96637653
      2451.96032898
      1795.75084306
      2014.29003073
      6388.47378511
      2068.66693288
      2250.18275289
      776.24563049
      1175.63255656
      1151.06948382
      2578.11122584
      -76.88729884
      2742.88647241
      1449.98410529
      2534.78197055
      -4076.55196378
      -779.65995976
      1298.23561975
      -1297.01388501
      -291.58201654
      6818.89665875
      -1164.17657629
      1361.18641300
      1718.04653187
      307.91524830
      1289.50863815
      4179.53561965
      4500.90991276
      125.03412709
      1730.88613098
      -577.40337936
      2425.60274717
      2372.05182031
      1988.25378615
      3111.59822268
      -907.54692925
      1555.77449670
      36.63009009
      -825.81462017
      -5174.14134174
      982.28280433
      -643.59662859
      940.76311794
      -321.76867258
      652.75861507
      649.64898172
      -1570.78072552
      1644.04062110
      597.71293164
      -1069.37737642
      2141.87025394
      324.24241634
      981.30472196
      1812.31606273
      4401.26227329
      -1172.03362399
      292.32138899
      7015.86553501
      23484.30567670
      22076.28863744
      6356.45193441
      6627.50877429
      4095.76908071
      2035.99852255
      5595.23273675
      2294.87632390
      2105.76821239
      514.66508937
      2336.24506727
      1969.20874995
      877.00430863
      -103.87489027
      2313.60611921
      980.26939045
      1109.81618707
      2059.68783904
      1838.42460298
      1147.82084274
      2333.40261508
      2491.44577797
      2141.03060898
      2710.19575637
      3974.81935930
      851.87311597
      1197.39551719
      2409.57734609
      364.97229187
      250.36785931
      699.71186571
      2719.75125301
      3101.98791027
      1669.14309864
      1271.88920038
      513.68451552
      2027.97502715
      2399.84783506
      2244.78204277
      321.13098685
      -1597.46529957
      528.30466338
      1211.17867485
      -510.04586751
      -3801.11259287
      481.50887248
      1414.58002611
      1181.89029445
      -1247.78701402
      -487.19619507
      1185.22854578
      1273.13725242
      -1663.03395212
      -674.82520859
      -4345.30447726
      218.79019514
      2607.41380394
      845.46187249
      -1287.23859741
      1059.75800056
      -1150.08983918
      1980.08792163
      -41.48287834
      331.11400740
      -567.82631972
      -28338.34729544
      22403.82191480
      8835.13257082
      4233.13052187
      2020.56614182
      9388.47495741
      5207.37175686
      3517.74493568
      4716.39053209
      2147.05730021
      4590.76059655
      12376.83183022
      -430.71718555
      -527.40232877
      4982.73008718
      1522.57902385
      1679.31295887
      1912.58708327
      2147.20357204
      2102.78597204
      1905.58253968
      2125.00027724
      3046.31825676
      1437.99717372
      1353.16867788
      7360.97503740
      4468.57622078
      2111.41819964
      233.60182751
      5144.97012237
      -314.02470323
      3200.77033668
      3871.80816076
      299.00446224
      178.31502297
      -1020.85863477
      284.77170978
      2106.15618269
      1313.67797687
      1791.67386269
      1599.30648551
      1551.34041839
      -641.02346205
      917.26970851
      684.75659456
      2174.87487864
      1398.94811980
      752.62549374
      1945.29856863
      -177.48629590
      359.80698269
      3540.28720790
      137.94579136
      362.51144274
      -1444.45567554
      81.78944387
      3120.06305996
      -5687.65263987
      791.47251650
      -527.77703257
      -84.33551974
      -928.82460300
      363.71717565
      8144.44771547
      2237.45762944
      -1429.83580062
      -14391.70371803
      4183.51043462
      11691.20289240
      2731.48336198
      3445.78760967
      4270.66361686
      4964.57685992
      5729.48049904
      2372.15056377
      -700.11836836
      4937.40647830
      -3004.20481445
      2632.15156813
      2136.92055263
      3083.55076051
      277.67428664
      1722.35622817
      3584.38420705
      1790.30889663
      2587.21933114
      1480.69591023
      1433.33548522
      2828.30507748
      2159.08898943
      2406.12914994
      4463.38610935
      4029.24201685
      -802.45677175
      1947.37104698
      1929.72860139
      1644.33949406
      36.19473754
      3353.71254383
      1862.26910875
      -336.02495557
      1172.31323922
      1608.42011489
      2095.19119286
      790.06390714
      -147.74040683
      521.55263172
      -683.91582643
      367.90650292
      -1281.75969636
      -1064.09252156
      1269.89779724
      -1082.12020361
      1005.46128227
      319.46528869
      3371.48903641
      1787.67234785
      1060.31409235
      -279.29149095
      74.29891800
      692.66804032
      1429.87882357
      -3619.82797606
      3064.45977155
      -1614.46699046
      -627.68395463
      -3541.79423943
      3793.25574919
      2976.65652235
      5117.48270860
      2516.53490263
      4911.74856282
      4154.24345399
      3808.67850473
      6441.48760403
      5742.14670959
      3783.00413114
      3884.11643322
      2879.03937074
      -620.63542020
      1735.13866436
      2139.62349412
      1639.46881519
      268.03048720
      801.15450045
      -3592.16173992
      1222.16295126
      641.81536331
      158.92969515
      666.37872499
      -81.11085431
      -638.93358269
      1695.08717795
      1994.35521644
      1468.81212234
      2917.96148038
      3527.87333054
      2574.61233251
      1833.90307083
      3542.32736830
      1885.81511013
      1804.79979955
      4485.49701202
      664.71291776
      1370.26302863
      1070.38006736
      -82.40735287
      2740.37354545
      -1286.52634149
      -1392.82104732
      244.42795646
      -2399.09138620
      1323.23564008
      4769.31774313
      2090.45802289
      556.16199922
      395.96422261
      -675.09518651
      -5355.06014891
      -1287.49210514
      -2060.09498737
      1575.64905660
      1411.64936070
      -555.73649099
      -211.41983243
      -563.83718980
      1379.99580952
      1012.54691504
      -1335.48051402
      -936.47718827
      6913.29065109
      822.15829183
      5421.92295530
      1591.65629576
      3741.31171849
      5251.17546720
      1150.34596132
      334.44597709
      -30962.88851667
      -5678.75686574
      4381.96126518
      8833.46343397
      2085.00346416
      1160.14289638
      3647.91220438
      1157.85114334
      1253.03892346
      7067.20693057
      2340.43287767
      3880.77234064
      2483.72076383
      3781.95700254
      435.54279147
      2900.75131650
      856.72943770
      855.62532142
      1192.71813368
      3174.46243477
      373.83836448
      635.28906590
      3016.61483052
      520.30308560
      1440.57351277
      3334.24059079
      3359.54307621
      4148.72890887
      1626.41070792
      1036.92383059
      -362.94293910
      -148.89715626
      -25.33906319
      -1473.50070382
      4458.93659295
      366.37701003
      428.99351469
      -100.31116296
      -3007.85915533
      -2234.63259615
      1826.57939147
      1580.18612744
      1268.88017112
      726.29655755
      1396.04307417
      -1909.29420143
      2140.68767716
      1554.55829993
      -205.41998794
      2217.76372872
      675.97858543
      1824.55256910
      3776.60818305
      837.72433751
      -454.65538497
      390.66493375
      2322.40667904
      1859.77243882
      -38.70741868
      -1209.99803561
      1768.54868440
      4134.55208864
      4509.29767947
      1823.36165185
      2486.01696744
      -6549.01664392
      -19317.15986296
      3439.32525334
      6797.12250180
      2347.03296527
      6326.52307854
      2189.29139444
      1320.28657111
      2804.97460454
      2510.36231122
      3975.28246473
      6100.92367060
      2761.71669455
      1567.01126147
      1024.84283858
      1294.48205619
      2438.68420751
      1274.69312146
      1765.51699297
      592.31153148
      1208.59292287
      1350.48326850
      1251.54062416
      1250.82145012
      1271.55309145
      1641.70642268
      1310.85346513
      402.54077184
      826.06278843
      1011.41432988
      1519.55691587
      1769.74814129
      577.47640406
      1151.08606382
      2501.30759157
      3149.83660980
      3681.59668037
      -700.42560047
      734.33742086
      3252.74827278
      364.96046598
      732.88657004
      5339.67318025
      2418.67861891
      1279.05667065
      588.16853530
      181.27013118
      705.19058217
      -720.70484166
      381.55636597
      -700.57473314
      825.24841460
      -1228.82756854
      -581.26211708
      2064.53817840
      -442.94311474
      -1969.34515787
      -907.67645853
      1671.64479084
      2363.35475367
      2186.18518694
      2252.33460236
      2894.67398117
      4351.46107046
      1345.00805560
      2586.28982928
      573.83173934
      3211.75720808
      1009.27610082
      9467.80158749
      5147.45297094
      1758.89865961
      2103.91984591
      2984.81080469
      3847.86164348
      2738.62233451
      2668.35976108
      521.64466402
      4813.89233577
      2531.87218156
      4511.56534232
      4367.66969865
      1375.32080477
      968.42049064
      56.83458934
      1825.60411876
      808.37940769
      874.78806836
      1330.75957129
      1537.45983974
      740.49314798
      1082.24617502
      1715.29641042
      5300.80761518
      -698.49887687
      1343.25370042
      328.33745547
      936.30701871
      304.00581576
      900.30940642
      1114.39105059
      384.08448910
      1195.21611055
      239.41805910
      -1011.79122283
      2523.97266841
      -1813.99599181
      -168.64515979
      2086.89417794
      2205.90534820
      1819.00387947
      -650.78937087
      173.77889864
      180.71633009
      295.16398373
      2482.39893590
      819.84810791
      -942.14830681
      1289.45285381
      538.10198211
      791.16346465
      1019.22495313
      -354.10006520
      -978.19005034
      -198.52870619
      904.03406964
      2297.19717672
      1557.14118363
      1663.49169041
      2929.85672850
      6869.50657587
      1404.87913298
      3224.88523594
      -7098.95704551
      1351.07896724
      3817.30539581
      3887.31090452
      3024.47296734
      2636.34938023
      3780.35177141
      2785.77528253
      2159.50891409
      4349.69505820
      2969.27920896
      920.03074671
      2741.09154669
      1149.96605316
      -2845.50780798
      -2482.05622882
      -458.59943851
      158.21666521
      -5760.14692553
      -16.96484931
      -6148.32390186
      3516.41957633
      1670.14104524
      233.68809297
      2328.43145956
      5830.11892234
      2523.44854135
      1334.18249758
      3079.28056306
      1669.13469566
      1727.13601187
      743.68791470
      -139.05798760
      869.32292970
      1354.48766934
      196.27097130
      858.55131403
      918.60303138
      -461.94574195
      621.01138773
      -357.32913905
      534.63721536
      -1782.39572894
      -777.86444310
      1087.10052049
      1251.60961062
      -2940.80079299
      -3658.19851270
      -96.92352914
      33.75889390
      211.24496057
      -1553.22983978
      -2238.34661710
      -7.80787457
      982.19784906
      461.33435135
      1523.41718111
      3290.46953948
      1780.64611818
      -367.89158468
      2861.94641802
      2410.37368780
      453.99858857
      4599.68385081
      -1792.77879708
      -47.39067850
      -40161.08078057
      10047.05917360
      2329.91155356
      7455.65044657
      3121.09161949
      169.90857529
      1510.54681725
      2812.92551590
      -376.70118574
      976.31706700
      2380.53278966
      -747.25733714
      182.66303216
      3391.85940743
      4284.28302059
      1059.53019925
      2274.20516222
      1155.09850493
      529.09144981
      516.92156601
      1132.14026542
      1032.16871401
      -603.92569171
      284.73920530
      1857.63871656
      840.46071915
      3440.81714377
      1616.42382935
      730.49319411
      3968.71033687
      2736.81207405
      -9580.72171335
      767.28391898
      1049.85520382
      3140.08770726
      -420.34289966
      3963.21635562
      4133.13125019