<?xml version="1.0"?>
<VTKFile type= "UnstructuredGrid"  version= "0.1"  byte_order= "BigEndian">
<UnstructuredGrid>
<Piece NumberOfPoints="5123" NumberOfCells="5123">
<PointData Scalars="Pressure" Vectors="Velocity">
<DataArray type="Float32" Name="Pressures" format="ascii">
      340.08936162
      -17190.21666756
      -25129.97231122
      -25493.28008765
      -24261.99582305
      -28560.32273856
      -29272.80775739
      10.94633136
      -151.70716936
      -23569.16128140
      -121.24008779
      -22140.43487678
      1113.51006120
      898.00829470
      -20993.64946475
      302.03439374
      -185.73179103
      -27025.94562458
      -466.49920712
      917.97782700
      1806.79463051
      200.96264766
      -626.37250438
      1160.69873169
      -886.84766690
      -195.85402436
      1403.06612364
      552.97677784
      -287.80717084
      448.44295950
      343.52697856
      103.65661169
      318.98449568
      418.15628535
      1462.59318768
      937.43433606
      380.51606224
      -51.65524285
      988.38671759
      -243.92086686
      -442.90812649
      2204.94373219
      2442.18163373
      -109.55779397
      1461.82020600
      -7028.51166331
      559.28450918
      3629.72020456
      -2728.38244375
      3011.76285544
      3417.25664370
      579.53024689
      3017.39983495
      5444.81029591
      1758.88853100
      3386.04526584
      -355.90080099
      -8537.53665699
      4176.23717693
      3269.43072735
      3006.53453534
      1510.33821233
      -2488.03335374
      2969.16397889
      -424.27586862
      1873.64409317
      3599.36294606
      5389.50317142
      482.30534360
      2480.44998522
      248.81367529
      928.28327454
      1919.92097464
      2039.27163596
      58.34353074
      1600.92024616
      655.18295822
      2635.24701912
      -335.04963528
      703.89386182
      -247.24762935
      317.48807352
      693.19312557
      386.62221939
      644.22224635
      771.84711150
      -161.00815407
      3818.74936130
      -747.66073497
      613.65502808
      1331.34785193
      351.51617425
      729.10910253
      -159.52084915
      -83.69971008
      -158.74055109
      704.81532633
      -61.58007192
      98.35641248
      1039.11867553
      -569.48869954
      -245.92355942
      -170.05582614
      -318.79656632
      346.61477026
      268.16161491
      -195.47565803
      -344.72414687
      -1507.76217317
      -126.58265662
      -1068.76413591
      486.31114992
      1475.39202839
      625.89724536
      1305.31921697
      2135.36684176
      6276.20071748
      337.67350170
      -2445.72390259
      2356.32724606
      889.94216418
      -4434.88016365
      3770.03595215
      5238.06388595
      -462.67419863
      64.78534556
      638.45060143
      -2112.73947649
      894.75774203
      -652.99990820
      -3379.42779107
      7283.07117141
      -24148.52814249
      -467.81676235
      554.61593593
      386.64899004
      802.29265377
      5047.05868378
      2305.69851901
      647.83387848
      -233.48154797
      155.28155369
      926.54157624
      728.33334062
      -634.46638247
      -621.80411688
      678.07109913
      -415.86371895
      -38.99856724
      334.23129179
      122.66308650
      -204.22519055
      1167.81551398
      1356.67388884
      343.29204018
      480.69474125
      455.93013002
      928.25013000
      -2304.73612041
      997.49935361
      -122.06283711
      95.58630633
      -409.65066266
      434.99923987
      1395.45309031
      647.45141035
      -14190.18068592
      -2265.04036063
      4787.60688081
      337.90049345
      118.26978430
      954.31323938
      851.82123186
      262.80041571
      2475.34466086
      -984.25052604
      -1597.54733773
      2462.00153265
      2746.97521520
      3836.65903616
      981.47744315
      -140.34153578
      3401.45927167
      -662.41382141
      600.25314269
      -2101.18455727
      5765.14580071
      1857.88298886
      5057.87363473
      5907.33091761
      -711.34583600
      737.46413162
      -3054.20120399
      -7554.61153251
      1308.31505411
      607.83319896
      -3463.57800928
      -210.34202150
      -18716.99888393
      526.06342308
      808.16265734
      1341.73757330
      3757.79362892
      -389.99103459
      4432.54251260
      849.58660184
      1426.33553930
      1214.85634757
      1722.63067000
      1925.52815587
      2129.28466540
      2036.00622634
      15.80049724
      485.87033231
      -116.26709778
      937.57318240
      215.10907521
      677.54597197
      4438.69835563
      -691.61175042
      504.86015774
      2372.69118565
      972.74545804
      1837.77554816
      33.14800276
      -1379.28675877
      1725.51209564
      -160.17324377
      2038.32703344
      -335.29941615
      -843.98336110
      -181.16086494
      8912.41750750
      -1265.53348584
      2696.87981980
      2297.96738633
      2298.82544864
      1178.95107730
      2612.63024862
      -2065.89444769
      10955.93608362
      -18367.11185591
      13978.35531691
      5797.04715613
      4368.94579177
      -1507.73330769
      1733.39256244
      7405.52655321
      9187.62203892
      -1538.17445422
      -3797.42021625
      3309.52810484
      5248.70039541
      779.28001864
      -1079.54388963
      -1268.22363409
      5968.82512950
      5426.53643486
      774.09163214
      -3299.84032588
      1745.83214397
      2059.69771310
      1223.66876321
      -4551.90520839
      -27399.67254656
      1587.25495129
      3463.82531050
      2500.25478671
      2431.08557432
      4498.06567270
      1504.06680453
      848.54544756
      2063.51148994
      1518.56259026
      2324.68289302
      1026.79431250
      1294.07306652
      1594.80337442
      466.30499980
      1078.47598663
      -1535.87942403
      551.71216643
      971.23333287
      1674.43664668
      170.04629261
      2173.62349958
      2449.66454693
      1578.54859062
      -332.42514981
      1171.46759605
      -455.51442375
      1134.73281170
      -2054.80278990
      986.28639018
      -726.96359000
      1055.11558620
      -1259.88939358
      -581.65795545
      1158.00469520
      -794.87938144
      349.04863286
      234.24189849
      -1809.56124891
      958.27289151
      1125.39274880
      -1055.55672199
      10836.26082766
      57.02722728
      1322.29194628
      4534.09308165
      -1943.64384575
      -5059.00765356
      -225.21980570
      2251.95891390
      9220.20028933
      -3182.91646260
      1978.63077514
      3575.22393222
      -5158.11912984
      2765.68423159
      -8214.21191819
      4078.35540552
      -633.24527947
      975.26082643
      2467.73830198
      911.26227094
      1754.90641733
      5886.80986226
      2100.86377729
      3085.62647591
      -20980.90566408
      4488.18171292
      2707.08274545
      1587.18112884
      2138.06971405
      1703.14690192
      2998.54041801
      3203.67905666
      733.76947744
      1671.30886763
      5102.61693616
      3321.53642086
      1528.31495486
      5579.00130490
      3997.25315410
      2935.18815867
      3599.11253439
      2623.84652227
      3869.07819234
      882.12803466
      9440.33184606
      -322.88307336
      -514.27134022
      -1658.19447472
      7205.82928972
      6463.23540963
      -1388.98803865
      934.04640809
      4003.71247681
      1267.12234719
      945.55717567
      -140.17741984
      3200.64260375
      2107.72801166
      2306.83280253
      -1944.65286026
      -235.54245643
      829.61072629
      2103.07669157
      1479.39358648
      1424.49655585
      2863.43024524
      2392.18406658
      820.63119994
      5436.15211283
      2564.47726253
      3753.63159294
      5678.40276798
      2158.53595791
      3355.83003328
      3563.24097215
      -1904.00827750
      253.62485068
      1796.03698607
      1299.56494746
      9279.81890102
      2628.63651697
      11349.80984419
      -1427.33880812
      4176.48294054
      82.86854645
      1529.89977178
      4386.57321140
      1807.56908608
      5412.71890692
      9886.52534815
      2478.50239971
      4249.78973601
      1929.39117835
      5948.31045110
      7319.39174016
      2040.29370084
      4742.03278086
      1559.03714373
      3344.33415480
      5693.40506282
      2300.46201024
      6320.13679943
      2872.68664976
      6582.37801536
      1692.65880356
      4481.45341695
      3832.36481304
      2820.01945086
      1238.91528260
      2483.09544946
      1772.27795097
      -291.35189529
      6826.19992210
      7819.93738819
      5756.60870702
      5261.51216712
      2028.78165462
      6910.22368255
      1797.03704904
      -280.78799042
      5337.53815406
      848.43743586
      2908.04377960
      1229.25468525
      2911.90633581
      439.17818521
      7669.37399292
      1342.58809524
      10860.43037894
      9075.91914684
      -1113.37876536
      4763.66223197
      2017.53875773
      3030.40267921
      4944.07896597
      -1241.85721354
      5573.79698000
      2304.89041056
      -673.50177202
      2279.19488668
      5692.76305829
      3252.38576457
      1504.49850006
      4820.79636404
      2046.95769794
      3933.42803692
      3946.41687958
      3376.64353656
      7437.39341904
      5780.46829857
      2373.65280417
      1470.86436924
      756.72201551
      3268.03788933
      5246.53501727
      555.93148380
      3704.47040706
      3814.02259522
      3050.25796341
      3604.89412879
      2803.93607645
      1064.95786682
      4534.86570768
      2143.82715979
      898.84410498
      2546.29767561
      4801.59927544
      6307.63556741
      -1517.48860839
      4461.54793657
      8237.90037763
      3060.34225031
      5256.41235956
      5834.54136570
      3651.11346577
      3139.17075759
      7359.93920027
      1648.46617547
      -526.59484149
      2744.70627228
      10912.30479922
      6297.98764473
      8108.30654748
      10949.80465863
      4672.03227572
      6330.56494807
      6491.92702190
      4148.13000509
      332.98145229
      2487.79101166
      2622.82981790
      1885.03690455
      10.87750822
      1674.41955978
      5135.14916642
      613.66857221
      5199.90787176
      1813.23932779
      2875.49171126
      2943.90232872
      1141.02238511
      1577.35861144
      3365.44213020
      2825.47661615
      2965.53056727
      4024.69020229
      -2035.44864105
      1677.32954073
      710.50545730
      5676.39351354
      3385.38523972
      3770.60670587
      4362.05739109
      11216.05819188
      5962.65758217
      615.13676894
      851.94951078
      2373.54970874
      2304.92580601
      1882.92774033
      3771.20484893
      3254.88406882
      -21336.21804100
      4914.84559898
      5591.39433201
      2440.61658115
      7452.22803181
      2150.10846302
      5126.39165922
      5346.52665282
      6955.44402302
      10030.90649402
      3489.96480202
      7545.17022766
      4695.88387341
      10470.97381524
      20625.12737675
      534.39978155
      4953.11166747
      9097.43029381
      4843.61277929
      10190.07418262
      6632.19532116
      -632.63672978
      11066.15454334
      5131.81362535
      9362.78016398
      19738.79919530
      3463.95368709
      5260.05391503
      2912.81503677
      3129.23562171
      15065.43363853
      4591.97783942
      5509.53480484
      11092.89272036
      8219.62166882
      4507.32479196
      7272.91600981
      90.01624638
      4945.21031420
      6060.62131792
      3059.98884457
      7082.45097416
      4366.79907083
      -4250.98136756
      5811.98415714
      3074.14472973
      1456.85012845
      1282.80747649
      1785.31009859
      1785.27832328
      2486.01055121
      2934.22414044
      2078.10007956
      7916.56847139
      883.50645054
      3956.36993711
      392.01349778
      15.75630772
      3031.46298263
      825.17945498
      -5582.51754994
      -898.97856251
      -2261.84012174
      2163.88337072
      3904.40031720
      5511.85323137
      3763.08601524
      -16161.55176151
      2146.69594540
      1158.20758697
      2716.78735271
      5609.69702697
      -50.29524337
      3879.75291513
      9513.95982792
      3609.47947447
      15399.01780917
      6411.52561281
      4213.02920828
      8059.55454850
      5869.94510746
      6330.48454587
      4027.88649427
      5032.19754563
      5508.16175765
      4357.42982946
      7167.60629916
      4796.52409433
      6792.19732866
      8790.74643742
      1785.11711448
      3283.51167948
      3551.42991760
      4211.73799425
      7519.92009648
      3260.76786035
      4490.69757577
      3359.62218296
      5160.01836030
      6303.62666767
      10253.89658548
      1007.46683410
      2510.62328821
      1796.53882681
      5075.18131348
      -1579.83291241
      6091.06045477
      3921.68701617
      7336.31416366
      1914.37629683
      2953.20692075
      3481.70245900
      5379.88951964
      -2195.88607073
      3734.77947439
      7341.10138455
      3544.37271243
      5140.58799944
      8774.63889924
      -576.34071331
      3906.16710915
      3745.42413536
      5448.19865371
      6282.80655175
      -561.03786393
      1529.93788066
      5823.17201680
      7947.29535824
      -2676.76930380
      -1979.74666060
      5145.38210373
      4168.49109777
      -18378.22992136
      -5122.03323266
      2578.72148169
      6509.85443828
      6330.99120614
      -1671.08757759
      12996.14163621
      8654.67655153
      12184.35597460
      4002.35530213
      10276.00619058
      10604.28463110
      4156.30511596
      17577.45204924
      9722.43403269
      4122.91880251
      2145.03000743
      3165.14883078
      414.73308719
      3035.78460975
      3351.87842539
      2525.58454178
      2913.62862730
      3207.19137045
      1033.58393887
      4129.82224164
      -562.51592246
      3776.91410460
      851.64408481
      1322.32707359
      4365.74959547
      4169.62863977
      5924.06412993
      4684.46906992
      -771.29176268
      4423.75343906
      7032.93217554
      3268.62828723
      -1985.72680548
      2313.67908551
      5831.35672345
      2240.94305542
      7261.50615612
      770.14104899
      -485.77012221
      -291.38954696
      3656.79580322
      10282.34479167
      2081.38213022
      2042.43026568
      2420.43013317
      3490.03680190
      3019.94052767
      11174.18308397
      262.65161646
      -4273.77144469
      4794.71025270
      2763.17125288
      -1303.95956902
      6482.63002946
      4094.36793134
      1844.46016320
      9884.46008193
      -1062.41014791
      1976.26843628
      12867.84685172
      -15857.23209146
      1256.14819225
      11720.44769181
      6650.80321923
      6766.56747549
      17026.57404374
      3769.39357507
      12893.07556248
      1396.91508056
      20418.04234043
      5552.69019038
      10468.49793350
      16203.41969324
      19169.48097857
      4595.15589915
      3121.85024442
      5041.97720541
      6791.84106187
      2181.18524164
      1690.87692281
      1767.23815086
      6258.65654590
      2292.79076457
      6024.97786773
      3291.64991786
      6558.58718857
      -560.10418682
      2250.51614643
      3124.76887537
      1982.31734274
      3145.98098737
      -934.23875607
      5085.20557004
      -168.48083735
      8768.86085979
      4779.43503248
      3260.87061363
      6715.58580596
      6125.96131194
      3048.04419719
      2540.51966179
      -3832.56505339
      8709.34292500
      4850.48088106
      8051.14237542
      2717.46754727
      1072.55427137
      -202.84916178
      3089.00238999
      4992.15244684
      -243.47015788
      4082.38325283
      264.72862165
      1343.69441806
      1245.73158316
      1909.89561321
      -1515.40927210
      9173.53202410
      2054.50137503
      -3138.36464534
      -3260.17228059
      -938.66891977
      3731.99701736
      831.91696211
      6483.51738969
      3138.02539010
      -2597.74711655
      1807.43197082
      4451.97430183
      4439.15057723
      3690.87729792
      6864.73547124
      6479.63963496
      7296.73811422
      7321.88608036
      7850.63170716
      3155.58379732
      3575.18777285
      2601.33385373
      6694.35727698
      8944.45970731
      2182.31127352
      4722.31166237
      1978.89185027
      1417.91506808
      2437.15799478
      2922.27743340
      4399.73713690
      2734.78337673
      1633.77590446
      3265.45784793
      2014.84558053
      1164.70268959
      2193.33762242
      6413.50381391
      5946.98421572
      2234.96975688
      5553.82432703
      4308.24068095
      4913.33231416
      5130.20128942
      2116.50030717
      -484.86151477
      -443.01795632
      5473.05739438
      4505.70918328
      685.74298836
      2944.76064418
      4205.86519255
      774.99448445
      1749.07779470
      5129.93411271
      -1848.43116375
      -882.17071194
      5421.31708441
      3019.23509974
      1565.13838757
      686.43709549
      -1066.60566314
      1946.06170655
      3408.73602466
      -879.01576620
      -1750.24991811
      1793.65400946
      -261.15381277
      -1242.13630856
      3180.05297049
      4266.50110825
      4260.74882056
      2206.03686040
      9267.08834666
      1254.03279573
      -7886.36499036
      5067.15490068
      3804.99387986
      8628.83578718
      9060.31977559
      10310.55879565
      6737.25538169
      11611.11837922
      13128.57581125
      2515.43504784
      9851.55790216
      -3473.04223708
      -307.17426231
      11501.67630115
      1175.78918738
      7043.76933293
      -405.08444130
      4232.31829929
      3244.46455866
      1458.01780888
      1675.33801917
      2615.96516529
      -377.16454814
      -2884.90004222
      3452.61723982
      1871.45880720
      1743.80454811
      3184.25696320
      1141.73600278
      11222.66369364
      1791.98672660
      1143.54630155
      4538.28958735
      3426.30725499
      3768.53971243
      6400.77083061
      9579.15495266
      814.32592647
      4884.46527088
      3686.68061157
      4306.82504332
      3536.25783933
      4034.18635953
      1148.86773882
      449.69794227
      2143.24733242
      6290.14263840
      1660.78325447
      492.15696500
      -119.23508769
      1586.98071018
      407.48176481
      -2067.77811085
      -650.69020607
      -4766.62131881
      -389.76966638
      3213.82342411
      11272.93649816
      1687.17237913
      2395.05336859
      700.64698762
      940.24879907
      -1557.05643700
      10651.06723707
      8964.63046602
      3045.99266979
      2987.64281705
      15368.32846403
      14911.62249779
      10205.87016781
      8921.27626584
      2890.23523053
      -4402.39967955
      7203.06639681
      5697.11653333
      6195.31809087
      4986.55995747
      4923.46344413
      6130.10428874
      401.21874117
      37.33491438
      359.90289010
      3154.11198114
      708.32333261
      -336.84063821
      -30.92476689
      2176.72541616
      1057.48432589
      4250.90368749
      9694.34575528
      3668.23452546
      2983.62392976
      876.69731035
      3579.12276569
      5268.96550678
      -352.40689432
      2069.85005104
      5433.00442161
      819.02317479
      7658.89560445
      1681.26317706
      -717.27301260
      1658.22055880
      1443.08164752
      3355.86057960
      2195.30338941
      3261.29443933
      -1304.66774015
      6025.44178339
      -1145.86225361
      -57.73538223
      -2302.69881029
      1624.75860355
      -1517.93280706
      3074.21545117
      1945.05603106
      26.42076709
      -2877.22822214
      -1355.33715605
      -1569.94160868
      1620.91928913
      1338.40111267
      4169.30366782
      3829.40496439
      -930.90511278
      288.96826800
      -1000.84431266
      -811.27259473
      372.99738305
      3550.23065838
      4369.12980715
      3830.42853703
      -28338.34729544
      14498.52308918
      8463.25153158
      6363.65295105
      8089.58645012
      345.57646178
      1066.89047096
      4329.05566937
      6583.62647077
      3777.02846466
      6194.40468380
      9925.19321995
      3991.39039185
      868.31262954
      66.93113880
      54.43126749
      2486.35960995
      7273.99686279
      295.94937346
      1287.86469455
      3132.05011043
      2039.35648772
      -673.48616091
      -1035.05671313
      740.44463121
      5192.93658329
      3647.29874362
      1609.64761629
      1325.02262582
      2782.32086089
      -1709.56211468
      3998.54889501
      5059.78777072
      385.39409626
      3079.95018866
      3203.85108949
      4345.96920174
      2860.38462226
      3975.03431947
      1336.17228086
      1432.78460548
      3014.79714083
      3326.43554913
      1519.32414765
      1281.74605433
      5089.90953700
      2875.28548082
      2117.01327799
      1238.64309422
      3371.54893652
      -480.17400879
      -910.41190845
      539.64379635
      -329.44291557
      -179.54141927
      4486.86401490
      -39.68152839
      997.76870583
      1249.98228786
      -3182.19415557
      -3383.81121878
      2989.36923628
      607.81545945
      -2148.80416641
      5627.92312222
      6783.74083496
      526.95514038
      5057.62128871
      8249.48764654
      8188.44381851
      -2063.90530505
      5495.00432378
      5362.03233185
      1782.11904136
      3626.32085253
      -183.08684592
      1234.88153556
      -617.38802384
      2376.92267070
      1176.49914229
      119.94662417
      1564.66661569
      13.04221938
      1320.42421871
      -2192.37103213
      445.34641440
      2108.31764235
      -98.97232369
      -435.43543845
      155.53265555
      242.24851210
      -880.70193442
      1762.53788000
      940.63657693
      -1553.12038692
      28.40529790
      -2162.58744539
      778.40959509
      1779.46745830
      774.83022271
      1357.70078598
      584.07564267
      1377.24788262
      1007.11671557
      736.68731182
      -2475.75823845
      -3960.15920807
      3524.19330222
      883.63797806
      2518.47291759
      -1611.67003642
      4119.20946752
      -1313.81856767
      1448.48321890
      1775.29507471
      2559.14675056
      1032.94091684
      -13.70851887
      1104.43997217
      -1953.01201401
      -790.15676728
      285.11110747
      1040.22657889
      -1507.80486309
      -3303.89580956
      1888.13586276
      2684.58119894
      9824.52982123
      6755.86135855
      3817.21205572
      12931.52664778
      230.70361331
      820.94030243
      9978.36925275
      8684.53637337
      12622.94023152
      7627.37044689
      3371.60052872
      1266.79487832
      770.35649880
      2121.73464715
      1987.28965165
      390.94980318
      -760.62359810
      4525.19163214
      686.10193726
      1160.12281005
      379.84974744
      1755.42834874
      936.72943093
      -14.75982489
      1319.59557355
      1247.40554054
      1954.41726301
      2376.33658056
      2627.77060742
      1957.84522868
      2925.15666961
      1609.98124953
      -962.54626007
      1601.12755702
      353.64678710
      -203.37614761
      509.78660097
      2385.62263105
      -475.25155132
      1173.88875175
      522.24308057
      -223.82418949
      1445.50689027
      427.79266479
      -503.08656066
      630.13481687
      3190.84176328
      984.30139120
      3747.07545500
      -77.67322605
      9.86775636
      -1677.68416384
      2095.13420027
      121.27318069
      3413.55270891
      934.00628944
      2763.38366964
      -1248.42909129
      -688.81940634
      1433.73656368
      2059.28643560
      1927.60606606
      504.26165851
      -2686.05181380
      2267.09259123
      1408.34301680
      3443.91125440
      2827.48367186
      -9395.70516858
      420.38354694
      -1516.59968284
      -30962.88851667
      -5678.75686574
      8501.73292481
      13028.26537554
      2562.75872131
      -1544.00097705
      3639.61002333
      1425.77392959
      -532.95256475
      8635.23812523
      1218.09861633
      -527.37885725
      2106.20090429
      3397.37829795
      3805.46292532
      2665.41785222
      2650.21721537
      -850.95844647
      1011.33173532
      1005.11292861
      402.52484651
      1012.03830993
      1347.67219602
      31.14725647
      1409.06292821
      2226.54559378
      2343.43102966
      3176.45523901
      -338.00347316
      3757.58593497
      -536.09891169
      875.05859555
      688.78617012
      3705.88740555
      1323.48839403
      1155.63405053
      322.54016117
      -436.49713651
      299.14925086
      972.45554529
      -2010.36530986
      -617.44449789
      167.41980188
      1903.70476746
      -874.51603228
      48.91530883
      2130.12797509
      975.28439591
      1131.39438647
      40.51181177
      -410.28819280
      3040.19654291
      1781.38679708
      -1177.30205629
      532.20485983
      2028.09070918
      11458.77740988
      3602.98637337
      3407.69388229
      -6884.58217083
      2096.26506555
      3837.63874553
      -2331.56988959
      5882.86232939
      1176.80682648
      -830.64442600
      -19317.15986296
      3439.32525334
      4216.77404740
      11080.61544524
      4917.31711272
      3008.49504866
      1990.71562381
      7518.28200256
      5981.18241606
      3329.08991927
      4458.18693679
      1773.77532232
      5789.25215480
      -3081.87698184
      2407.54822089
      -1054.57133539
      2235.31106458
      4154.89187410
      2210.93113991
      2088.01882121
      1689.04492587
      1538.33645387
      2356.32490392
      3866.88281857
      626.88305390
      4025.70773784
      607.08672124
      5470.09528991
      595.54249087
      -1485.66983590
      946.26828514
      6501.89002796
      2184.60509380
      3588.95971109
      2341.81231526
      -2069.39027632
      -3028.08309571
      -1091.26879118
      -1560.15304414
      1372.67456526
      -618.10118447
      412.01072383
      -157.90403834
      2091.43892962
      507.85232697
      -559.46025482
      1640.86897341
      -1878.40422735
      1225.68543237
      1049.47049053
      -5.35792672
      2811.95256555
      -114.81450619
      208.34473798
      -483.30533993
      2217.79565231
      2308.47014343
      -8851.13474723
      1890.09913030
      7632.68492652
      9138.40822354
      12233.21512879
      12208.58582706
      2370.48446446
      5928.02696781
      381.00942285
      3211.75720808
      6104.40277610
      7569.42586677
      9640.51750061
      3410.09499714
      2348.11561094
      5434.67186260
      4507.65060083
      2361.05931541
      4402.55537874
      -2776.60629711
      1639.35546560
      224.45328152
      7996.23484870
      4213.11596007
      1260.22575354
      3485.55627091
      971.16016794
      3317.89755484
      -6044.13978491
      802.63278330
      -114.22157551
      79.74174559
      -651.24618222
      2109.29035483
      5302.72185317
      5819.03187178
      3344.97684080
      5841.75497438
      725.83835357
      6205.36350658
      1955.58218583
      5137.87846550
      -154.72972973
      -1638.28925585
      -2209.74085143
      2530.05366795
      8251.25251101
      791.22911275
      -232.66990168
      322.10205774
      -127.46927696
      489.87904878
      1053.23792365
      405.20650695
      2556.91322906
      -2682.71929228
      -4030.54654384
      944.82295307
      1081.29522839
      2239.45054321
      264.08275376
      1225.07837713
      2175.52170349
      603.63871163
      -17.17039769
      8.63195417
      -7696.87394174
      -4223.14347804
      8720.39389485
      2897.91776514
      3290.62849165
      1970.98100346
      14345.61564684
      6249.05523601
      -4379.40860642
      5381.23576830
      1351.07896724
      5829.56818099
      7062.25310965
      3489.03355859
      -1840.61009512
      3806.26808334
      7297.52839421
      5204.21400005
      414.28018078
      1191.04896073
      -927.51850361
      3647.62511624
      3114.99315555
      -347.04313309
      3295.90045465
      -7272.96338963
      -340.60643156
      -800.50307610
      -99.71882856
      -3752.15206534
      6833.99678886
      2174.45507822
      3439.51379596
      2025.30128970
      8869.52637358
      5882.81004711
      2844.08671162
      2721.69409588
      6707.25752827
      350.95192777
      59.57213773
      -1454.65406737
      1805.20759291
      4323.42950317
      641.53504664
      -6323.82851490
      -7501.55359944
      -1612.75427918
      790.36010831
      7007.19898000
      -128.95164423
      -1242.94771162
      -583.53107103
      -708.05801982
      -383.10312543
      557.82544958
      325.79657670
      -1954.97103502
      171.06966349
      1120.02992162
      746.93361393
      2722.02383024
      7558.89000376
      -252.48800269
      -309.18863652
      1014.80636371
      -182.30284650
      4685.38623586
      9710.69120472
      12021.60687647
      2930.00513830
      2613.51181459
      868.02839019
      -1260.48210751
      -2958.44968467
      -40161.08078057
      10052.03905604
      4086.78220637
      1961.57178199
      1943.75747187
      2754.10654568
      1765.14746069
      1641.91875465
      -719.78799927
      3242.82870696
      -2650.56413721
      5157.00918427
      6839.62591182
      12005.58024384
      5775.39919125
      1724.94692096
      1162.74087751
      2847.04643492
      3111.85418932
      2609.53447195
      2843.83493444
      171.54859849
      -3.44999922
      3067.45054677
      3027.72676710
      3323.22521657
      6612.75943307
      1185.65144919
      1966.63030729
      1899.19278501
      3297.50620228
      442.55465661
      2196.37940908
      2723.34695875
      -1466.79200275