<?xml version="1.0"?>
<VTKFile type= "UnstructuredGrid"  version= "0.1"  byte_order= "BigEndian">
<UnstructuredGrid>
<Piece NumberOfPoints="5123" NumberOfCells="5123">
<PointData Scalars="Pressure" Vectors="Velocity">
<DataArray type="Float32" Name="Pressures" format="ascii">
      -1453.18861985
      -16799.44457848
      -21169.66503074
      -25493.28008765
      -24261.99582305
      -28560.32273856
      -29272.80775739
      2095.09694856
      3175.59014389
      -23569.16128140
      1148.39375562
      -22140.43487678
      3868.46541098
      92821.38633137
      -20993.64946475
      2056.22645526
      15695.46300233
      -27025.94562458
      74868.50482579
      5874.30627498
      8900.44007402
      3091.80675534
      13424.82762588
      29847.59200334
      3611.45128920
      5704.48444588
      20410.62794879
      18899.16718982
      16974.25986022
      16700.73843333
      9786.71198010
      9095.13362388
      3382.54476372
      -9692.90496503
      2355.08075422
      13839.00337602
      8393.23759696
      -3996.31341443
      21783.18210781
      144.20608427
      27826.77322423
      1009.54925302
      5421.54055894
      3584.74060304
      7785.71435215
      6063.02006050
      3.17789925
      -9731.15491005
      14695.04347062
      6098.30578498
      4779.09991338
      14233.33506963
      -1553.82060696
      7172.44546031
      4352.66871090
      952.40757683
      -901.44917008
      3286.22735376
      9258.44678402
      4394.33367196
      2821.70204829
      1381.27662055
      -276.16905255
      652.71752118
      -3683.18907819
      5989.63708951
      7242.41765865
      5389.50317142
      3775.05586204
      31278.70720141
      4225.82450974
      2077.33821440
      5456.29106327
      6119.50564764
      58.34353074
      3624.02276233
      526.36467258
      2635.24701912
      958.46438824
      3318.12571208
      1347.78556765
      -75.97373898
      1976.88938626
      1307.56827162
      644.22224635
      787.58729512
      5846.14288421
      6831.67868105
      4961.63416779
      3317.02543639
      3037.05193468
      3440.70505217
      506.99579857
      3491.34131507
      -3262.72394841
      -23.64448004
      18941.55151968
      3023.05725009
      11984.83386561
      5371.34211973
      4185.69419748
      -7809.95487692
      5016.36299841
      1451.11294704
      2508.46158446
      5831.32091477
      9724.86266610
      3444.70936091
      4219.20438417
      -1039.00439114
      12364.39282452
      10423.26368082
      3035.62674145
      -3091.20201643
      7607.00079329
      274.08546748
      2352.75365046
      4859.20086932
      7825.19333887
      -4270.49413065
      -4240.08001871
      4054.94295195
      -104.84567655
      3335.20729638
      4644.10923516
      4956.46511700
      -3971.68413356
      -398.32216145
      2556.15444565
      987.69401636
      2883.06451844
      1034.19169225
      -24148.52814249
      2812.09981024
      4147.23178807
      7029.96135472
      5257.08857653
      13272.90334289
      19583.51619498
      2301.79511301
      -1544.82286075
      1781.79715920
      6916.56649090
      4475.32295999
      6191.97255174
      6133.70327863
      972.84064509
      9810.18749382
      1216.37696659
      3600.99699365
      4507.34906020
      81.91598018
      649.19091782
      3805.80832684
      3784.39398930
      12775.41358429
      3812.12176915
      2387.76165990
      2059.01383448
      2643.79999713
      11128.96036339
      1857.53739979
      41.32697385
      1440.02166018
      258.25439062
      1948.98817197
      2498.71146877
      5735.45891209
      3447.12091405
      8333.02423319
      5111.88803726
      713.30830536
      11200.57243801
      2306.64145732
      3742.68607189
      2921.94093933
      595.60826547
      -8195.39509869
      1695.15284846
      3104.45968967
      -7475.45909703
      596.17922093
      4048.63472521
      5249.73343259
      -1288.17209807
      -57.98456400
      -5385.68648246
      -1520.10826634
      399.23067156
      2805.04164252
      -183.43807012
      1296.54004723
      -772.33086638
      5627.42364925
      -1564.48245020
      952.79128025
      1161.36131148
      12841.77601027
      -18716.99888393
      4151.66186486
      12319.21686983
      11507.24311114
      16114.40563086
      4271.56564874
      7019.21115891
      16866.48110958
      8416.04060629
      7932.09356033
      3401.12912814
      -528.62579713
      9300.68885694
      4515.82987888
      10218.92782811
      8409.37711353
      5112.30552368
      4727.42759818
      3648.66980511
      -507.30152878
      4049.57577418
      1692.28001334
      2151.95344950
      4350.91557954
      336.22647224
      5453.25378082
      1992.36078282
      1418.00095502
      1604.23957878
      12041.52200187
      13889.65888754
      8089.68308949
      3022.13188321
      3851.28799508
      4196.60484990
      9917.57137679
      1932.91625952
      -772.49318974
      1255.44123031
      -5113.93806035
      -199.56814952
      9044.27691654
      4305.34745052
      -3956.57648594
      7466.85145418
      17064.00616985
      2721.14386834
      2959.12689107
      -1569.45483196
      3705.21438461
      4012.52928293
      592.01687016
      3711.78692798
      4125.96575888
      2763.25823821
      769.42439031
      3308.19590890
      3328.36773322
      3782.04665334
      1378.88139167
      493.62753782
      -33.60333848
      2566.86670189
      2352.61261203
      979.77137488
      8516.73678526
      -27399.67254656
      6217.92260475
      3515.02986705
      8906.00669209
      5513.44393608
      14704.70674086
      11898.43339475
      9246.28346752
      4858.00208686
      6064.31981856
      8479.39439911
      4886.00477749
      3111.97002802
      7990.54610739
      2102.80832429
      2098.74803286
      -1781.47626963
      3798.39814946
      3011.41968360
      7064.42457445
      1927.30200714
      5982.24443012
      3656.09345497
      1268.10839534
      3756.68417169
      2297.59098406
      356.10879437
      2378.16451231
      4482.39255226
      1710.55289391
      925.07347015
      1480.27447850
      596.86480643
      1160.74849221
      323.10027883
      820.21667216
      757.93175321
      -383.81911325
      3783.32247739
      3568.92384475
      233.31886426
      2323.32148357
      4831.24277932
      1227.39181493
      699.24472455
      2374.07561694
      1691.02479758
      2087.89188270
      -1007.39149062
      2406.16559364
      1654.39489071
      1646.26161321
      3222.93392485
      1743.14960740
      4831.82288646
      1980.04420335
      4103.77985583
      -1565.29080190
      313.56990680
      700.41313436
      1221.53472276
      2166.67161593
      -191.87350316
      295.60073059
      507.79026086
      1953.34346746
      -20980.90566408
      3464.95627400
      2907.50762177
      25721.12802884
      13036.88598214
      10298.58540510
      7445.12636212
      5735.79170422
      2576.35969470
      8739.03778456
      5055.97864824
      825.71507064
      3707.19775315
      7726.59673836
      8641.61667049
      5996.61263414
      13323.21916235
      -376.84745540
      2506.17875773
      8526.79431236
      4745.07505346
      1292.00059256
      496.24714997
      536.18664369
      1595.78909520
      10120.51264401
      2239.17587189
      1854.06218589
      386.71320548
      2306.21958071
      1659.02391239
      1775.99908422
      895.99987610
      -391.08862410
      652.58027752
      3512.07289239
      1130.83058394
      1083.40423984
      51.17974546
      1547.30179373
      2905.63453197
      4809.07100907
      5681.34849145
      2965.63870124
      4137.16019299
      5985.94400571
      2528.33310558
      3486.60361840
      2517.84920108
      3139.17536116
      2827.65705499
      3894.12720403
      5864.97748627
      1196.19789402
      -2.16249671
      2573.27376255
      1591.93826990
      4115.77837856
      782.23171022
      2500.86252212
      4800.82658242
      -1365.83838574
      -122.00022757
      -1520.12963470
      447.86058881
      1714.62151368
      6372.79219254
      23765.05057811
      9389.12661865
      20816.29834439
      18085.62995398
      27839.86028314
      11564.54015148
      11466.71659638
      3738.10110972
      5757.32140868
      2629.58731349
      9188.39426148
      4409.43389755
      3789.20104314
      5308.31918246
      4848.73403952
      8809.48148521
      1468.04834813
      -863.68842344
      2785.29576525
      -505.93930739
      4039.90065366
      16557.15095980
      10920.50707982
      8962.73200035
      2200.24995619
      1428.80445806
      5918.90998479
      5248.96870678
      1597.30968244
      2003.17054598
      2949.72687903
      4808.07239993
      2071.58255143
      3688.92808182
      1091.92825035
      6011.29901160
      645.86467234
      4139.29871114
      2753.95610973
      1378.52289407
      4744.86484275
      660.96918805
      2310.43959830
      2528.49460895
      1767.06690312
      -104.85562052
      2796.63921188
      5053.41042810
      361.37085850
      -788.87045970
      1625.51608223
      578.74416095
      5751.07632528
      443.79098441
      2255.11803109
      1301.44104740
      10536.09952072
      3681.48478566
      -934.90456916
      2258.57548893
      2331.76249645
      3989.24122246
      439.02030213
      -7494.12325092
      3316.12603255
      12566.63364485
      13779.11897372
      7749.84698085
      4383.33747564
      25994.93632246
      7123.09088612
      5524.18294891
      4061.24532185
      10790.08895600
      1981.13465968
      4060.82201420
      10417.43039111
      11141.21558765
      3414.37690462
      1885.93552871
      5426.59834426
      9117.97634324
      11390.74276020
      2599.18196716
      3783.37663510
      5052.98986184
      6248.29814755
      4007.80359925
      2431.44974754
      7652.17608540
      3855.91773113
      3311.37341161
      3147.38771775
      4881.65943256
      1835.48563621
      4325.84860336
      3014.48890024
      5674.86184128
      781.43802131
      4321.25509786
      1397.79660356
      1706.82188540
      2693.09691290
      2802.70461066
      2954.73697469
      -312.03851684
      1793.01807594
      -1870.12267948
      794.19854169
      5571.86051524
      1499.13077412
      -501.69221052
      247.22208618
      239.58510947
      1524.41107732
      -1101.78476860
      -198.54171064
      913.48866088
      1545.84548518
      1947.24260764
      7371.09206428
      5749.67264886
      2247.40830447
      3761.32236832
      6814.35352537
      -2071.83322686
      1238.66971943
      82.37616862
      -3388.03246448
      -477.12140514
      3567.53705026
      -21336.21804100
      9933.54794457
      10597.50115201
      -7107.60638081
      1814.04515566
      5590.15338897
      6904.63130885
      11780.94202957
      4997.48218785
      4726.23197770
      9500.95388114
      5931.19650318
      17704.86993218
      8078.72312062
      3809.14024099
      6472.37179590
      5744.61842391
      2341.92939150
      4215.36605522
      3422.46442726
      3995.48495794
      1831.01886422
      6232.82933479
      4612.53550084
      7678.96536688
      4725.47962449
      8417.96724069
      3513.10745508
      880.48261303
      5904.52394062
      -1592.04278705
      802.66777051
      2389.98077993
      1317.91375538
      10465.20770834
      -1213.79140091
      2341.55097658
      362.22269958
      2000.80851260
      6346.89232871
      2212.55881895
      2358.96362814
      1187.00407687
      5034.99654985
      2441.17264080
      1146.60188099
      79.60915032
      1314.42564517
      821.77722242
      1985.50719126
      5197.39566196
      392.26716425
      175.44654468
      3621.93087482
      2194.07531706
      1070.11453919
      2305.33281371
      3661.76379138
      1310.79170163
      -1471.74792645
      387.76287651
      548.15852488
      243.58282159
      527.17379821
      -851.91276802
      2366.55299785
      5087.68773907
      -16161.55176151
      9235.24973032
      -8038.89869742
      3148.80773086
      -2125.43857864
      3715.50055625
      11080.93800461
      10364.05566291
      12801.90255056
      5139.11372336
      2242.74219371
      2737.01444918
      7005.54993565
      2835.12058307
      4480.47280630
      3108.48437166
      2189.02957702
      2410.69061749
      3025.49751892
      172.67373957
      3343.15740107
      -1899.45469913
      2435.59909840
      4602.39592814
      4195.52578380
      1391.17159215
      11617.39720891
      1101.80641724
      1695.43160997
      5192.99237770
      3877.21546972
      1418.69938929
      -1346.89910685
      5054.74449850
      5057.27325532
      -2344.59540386
      383.85216697
      4546.95462678
      1596.02771925
      601.96811486
      5399.87115090
      3404.70351906
      1370.62380662
      2609.62085299
      2227.68703305
      3920.87902455
      193.80981371
      -1388.07842904
      -445.50425455
      4620.97113372
      -793.60543479
      2522.88238950
      2010.33309121
      1182.95999029
      762.71898345
      1842.71660946
      220.35633860
      787.57075725
      1477.11605833
      -280.66653823
      -1269.85342001
      -643.55863880
      550.41689155
      4432.30828878
      1468.19968414
      -18378.22992136
      -5122.03323266
      8238.94907295
      6295.61470238
      7036.49530532
      7586.69015602
      5668.92368898
      2432.52475909
      12959.59311961
      5111.15664968
      1441.29772828
      4756.40229820
      5558.69629131
      17316.96914744
      4605.31844088
      -164.80391574
      3165.63173346
      731.53470897
      -992.34496193
      708.13980005
      2285.76578859
      5452.95691558
      -814.73640602
      2513.92655604
      1738.93932655
      1786.69110751
      -291.81381753
      1972.28657002
      2480.88523285
      180.46343257
      272.19295411
      5746.18077327
      2664.50682559
      2086.57155130
      191.03825093
      3868.97872202
      -184.96045933
      4530.63706814
      -795.79049349
      -2558.41474275
      4058.16526448
      -1929.06306094
      2402.63136250
      2279.46924594
      1576.33606139
      258.12658573
      497.95689295
      2843.94826681
      -350.06195186
      975.11261354
      820.34027018
      3251.69647778
      1271.77166123
      -830.13534384
      117.50994978
      1393.84294354
      1114.08917277
      -613.88255179
      842.29752757
      990.58716932
      2584.78943592
      2486.57518206
      -2562.94905639
      504.56434775
      2331.38468777
      95.48622605
      -15857.23209146
      7111.80861851
      2910.77581160
      5499.92473926
      5197.91749297
      15195.48921474
      -3013.53422588
      3439.68201428
      2643.22157136
      10929.60767049
      11060.08765432
      5238.26373891
      7208.10092427
      10900.66241534
      -3855.51221176
      2431.61177873
      2933.48597412
      280.39041590
      450.41429605
      1204.09544656
      1156.75276586
      -3859.22823763
      1537.09837862
      2400.20916096
      1071.80033880
      1677.22868744
      925.90246744
      1827.15459454
      473.95112643
      959.19636089
      431.42496235
      259.95882898
      892.85475678
      1667.92370999
      2717.04142806
      716.12309222
      2076.76233787
      1904.30624096
      3917.74497044
      -1499.45262123
      1606.80126921
      863.99874671
      2447.53781770
      3968.83463836
      5423.21392835
      5080.57366135
      1746.35345822
      -42.14024446
      -464.56037606
      868.21388805
      -2046.90047864
      3458.47148633
      265.91780633
      1815.66915180
      2604.11761449
      602.48669965
      911.27708486
      -893.29839871
      2971.63410337
      631.19693026
      1200.51681191
      -108.20721035
      530.90124434
      3692.95832893
      1516.17074099
      3777.92742658
      -7670.53798646
      4215.74400106
      -7079.65675806
      1746.17276331
      4974.71826089
      3718.03178535
      5355.35556173
      3072.29029770
      3458.46031117
      3984.81420093
      2401.81119100
      2358.21167621
      1579.77730893
      721.08040980
      2002.17797848
      1497.89907298
      1662.53259291
      1493.28525249
      2743.08398638
      1727.70121199
      2421.76317079
      3621.78624307
      982.89547909
      1321.19168781
      1935.20694906
      1513.80927461
      910.06180215
      2495.50307425
      3152.00939823
      -543.83866043
      1570.96661933
      1399.35487746
      1446.97014812
      -910.53987875
      -432.36699830
      2703.06229297
      -2169.59844812
      -1208.32904166
      1328.29667209
      -695.01451609
      1795.31925824
      -1676.63739830
      1918.47135713
      -2331.28048207
      2036.42977695
      2950.67752273
      2356.68229188
      2474.72582305
      362.82450121
      -49.61508363
      -425.41507947
      2072.72165225
      346.14597911
      163.65162206
      5596.91761960
      2402.16577576
      1441.68587413
      -1129.25255113
      -2420.80728405
      -410.10598626
      -1062.17740113
      33.99469821
      2819.72798472
      2015.27171498
      3280.32608955
      -294.75171429
      -7886.36499036
      11861.65397735
      2593.33608810
      -5842.54360785
      -4569.59247627
      5605.40500570
      2464.07864831
      9935.13868842
      3183.93865626
      2207.31804352
      1211.34767418
      2161.20490676
      1602.75985971
      3371.28176451
      827.04630997
      1663.17303583
      2329.91877535
      269.14459296
      1155.96204068
      1329.15584393
      1570.30964980
      332.07569083
      1431.50153579
      1070.95423494
      830.12238138
      328.24101174
      813.48927433
      2124.61626491
      1336.21644375
      2163.38771844
      1320.04655186
      -1001.53428731
      583.61469218
      -471.94627462
      -768.66043729
      4818.32681684
      1918.91235672
      -3635.78627725
      564.31835042
      -199.92469419
      893.33077416
      4602.14376617
      -856.23616969
      -1357.87219353
      214.64313463
      -720.85914828
      1287.36060275
      -862.23178517
      -3563.47044198
      -1588.19608124
      1626.21170473
      -1671.64215152
      1560.79263494
      -950.97315379
      -2128.99124024
      1248.43635154
      -2290.67840637
      -1312.85779962
      591.40250546
      1466.57467889
      -492.78781858
      197.13133627
      -552.55676307
      3402.01487088
      3654.07514302
      466.02173260
      12268.41769270
      -6891.14531588
      -27919.17237965
      6380.05927911
      -8077.53193685
      2346.47951731
      2363.89849841
      3024.54411920
      1946.79640955
      1321.99387034
      834.35546162
      663.78829569
      2661.57369475
      993.49637677
      -427.60544205
      1600.56031487
      1029.55204409
      -1033.31250166
      -417.60149810
      2189.74869351
      1100.94705230
      1276.77208562
      249.69752846
      752.40001121
      825.88049141
      2833.69050085
      786.05117781
      1217.80511773
      2471.12580928
      1156.57060967
      -1892.74904402
      1230.97360944
      2041.38396468
      2748.53616580
      206.85490445
      1342.71495973
      -636.26231715
      1174.92151571
      1428.75861182
      -309.88914115
      1091.45051172
      -2198.64262352
      716.01787582
      733.25412069
      2014.09691595
      -964.82671372
      -287.35985324
      -154.01902343
      2394.12731104
      2130.38845745
      1386.31299655
      1908.56296712
      -1025.53934632
      1587.12322463
      -43.53691103
      3733.08733386
      889.37240440
      -30.78246745
      2989.32110527
      -541.24250608
      61.03442949
      281.51528748
      1766.11225840
      -1414.23673008
      -1224.42369611
      1014.70622884
      -28338.34729544
      5389.42411369
      7552.15949287
      3297.64096501
      2735.25974966
      5413.08850478
      3633.25935948
      2629.07582776
      6200.69134023
      847.21220438
      3992.53297913
      5035.75089677
      1988.38571304
      1182.14611084
      362.24152631
      397.93663240
      1528.53083873
      650.77284266
      -59.00766153
      1348.97969552
      1612.61803951
      1185.80992941
      3327.73455177
      2987.52922632
      1623.34186029
      1671.87457167
      1756.02884315
      1876.25544027
      1546.30207172
      2729.71101784
      3036.93547282
      2830.28857764
      1658.66995866
      1057.45649692
      -0.37568903
      -2052.52070814
      -1356.86858055
      1572.72758279
      1011.57713352
      -432.71918097
      2634.32765831
      711.76575027
      119.64682941
      -24.46893130
      737.35655620
      1922.60167911
      177.00343528
      1366.10769428
      2038.47133703
      2261.33570482
      -1276.03727473
      1085.37635604
      -464.33751790
      316.24832306
      -1376.04489283
      1911.28630608
      -65.08078275
      -5336.72701820
      1694.81770075
      183.19518109
      -1859.85413943
      -936.55942885
      -935.11512276
      3409.79938809
      3427.83976548
      429.72872147
      -12140.26573589
      61.22773277
      8240.68761773
      6208.24173185
      3273.89273241
      11383.85851772
      3753.05985197
      4350.06842793
      2070.32671486
      -12.41358060
      1923.70325254
      817.01857813
      1522.57965358
      -104.03634260
      2600.69793187
      909.49754002
      1205.42182360
      4064.62696873
      2835.36456255
      2986.42778347
      2586.01995752
      -384.29624882
      2246.33830091
      1389.25061258
      2729.32251982
      5163.20344507
      3868.74336271
      -233.48274500
      1039.81949272
      -7.61359268
      1898.54804130
      1694.63058187
      953.62386251
      856.59207555
      308.36505812
      964.82615309
      1740.15644945
      1616.20069305
      2057.51319053
      -3712.54884227
      293.62891403
      277.29142260
      -87.07378926
      656.47862843
      -276.44913919
      -768.02596318
      285.07358948
      529.90440129
      -1161.79022918
      211.35683210
      1942.69245397
      2634.86886595
      57.59197852
      3072.81847783
      -1042.73243152
      -2551.73720081
      -2011.91822042
      11302.19938346
      1752.72103798
      -738.62108192
      2673.59577384
      711.79786731
      4871.24437071
      2119.79204913
      2639.07591443
      1129.05360749
      2742.82743836
      -3558.93268928
      3835.15028146
      4404.00514821
      3626.42340966
      4456.84298386
      2607.88943407
      1284.84530301
      1122.77890191
      2231.23809662
      1086.71369618
      1229.69085849
      1875.01248649
      -266.38887135
      570.13032024
      538.92560369
      -959.47194345
      882.18463972
      895.06645254
      41.83501141
      767.97022810
      -2068.03706172
      4223.96275866
      1952.66525567
      2325.51936166
      -114.93957372
      1837.98125011
      3510.04973065
      901.41220332
      -1101.84560429
      935.40492238
      2050.91166915
      -489.30255636
      -994.07872268
      1405.30313345
      -200.89208186
      52.69715508
      -1127.57780139
      260.63278753
      833.97206552
      19.10098690
      2836.72812424
      -258.67644597
      -6425.35454801
      1114.83720644
      507.04232637
      -1716.66141119
      -3525.40639558
      964.92819894
      1265.47424968
      -385.77856058
      1991.96429655
      722.85274053
      1058.11821852
      -4373.45110508
      -2908.80187919
      1359.41389692
      685.11852490
      -3330.13518367
      2653.43899987
      2041.18514840
      1568.77695579
      2152.11580185
      -1845.35878180
      2682.35812382
      -822.56566401
      -30962.88851667
      -5678.75686574
      2929.33808582
      5745.31897468
      1619.33874524
      4671.74805740
      3052.89515611
      -648.51221135
      1066.34547033
      6106.69319862
      3383.90531168
      1950.63103439
      3304.52344133
      4826.34002160
      -128.10744734
      1474.52395716
      3688.94513106
      775.52206348
      1104.64504633
      1576.34453266
      399.20713477
      536.71375409
      1889.71663934
      109.93112530
      1612.35003195
      2001.38823074
      2155.23104037
      903.62964406
      901.51314220
      417.88246025
      1049.40645300
      307.31034932
      528.53906494
      1685.16478785
      2725.94909067
      2213.42763463
      1907.54292938
      1307.03798092
      -3635.10188778
      -1716.54838687
      -383.08048279
      -1347.59387477
      -1109.05850209
      13.13410792
      724.95327636
      -575.26389645
      610.53407854
      -499.46145478
      -456.79160981
      3368.51762150
      -265.77498788
      38.86885527
      -1432.68236166
      3770.99929244
      -225.52542913
      674.09659945
      1493.08504920
      7.62870818
      3729.70184081
      2397.64279833
      1234.22265714
      3657.42322937
      2508.03421699
      1992.04451770
      1432.77937375
      644.14857924
      -19317.15986296
      3439.32525334
      5110.46776895
      3743.81681340
      3981.01872403
      3606.88674116
      3534.97988617
      3726.51526232
      1499.83899635
      2340.06246231
      4561.02239138
      2345.99037049
      1359.85092966
      1215.54880047
      2433.90096929
      1557.49971587
      934.15443949
      1425.72129980
      -0.53652169
      632.28761825
      218.24323415
      -189.34592664
      913.82889883
      1320.17304053
      1291.54661603
      1309.65635417
      299.75067550
      77.23921056
      703.28021170
      651.70354841
      478.65705943
      1522.39766823
      1097.56216716
      1666.95663346
      781.70550113
      329.74781123
      -392.78681851
      599.11256262
      2755.31066215
      -1691.31085637
      -2285.25028691
      5932.27948706
      -3745.24596372
      1176.35563316
      -1372.11147825
      242.62695682
      -124.84157626
      836.12573887
      -533.29950387
      1600.57137054
      995.87540201
      -113.07359967
      1594.80515940
      2270.94814337
      -1191.29977106
      -2337.00629386
      -913.11571072
      117.74013277
      2614.77326383
      2106.16866604
      1650.05561387
      435.94812657
      414.08041634
      768.93563998
      3835.81128948
      5602.55532013
      3211.75720808
      1009.27610082
      6210.41773768
      4490.14710879
      4102.52731842
      564.46073951
      2875.47033373
      1939.60267928
      -24.67527412
      2196.38077143
      2078.82984019
      2599.14216314
      1539.40451299
      4583.46578344
      2940.58711733
      1682.97566128
      3578.47030867
      1272.73728313
      597.25745396
      150.17846857
      1323.65474364
      57.08120285
      2272.62606936
      453.51128461
      1287.73442457
      1368.09454282
      3333.17599122
      1929.48666956
      -175.76923484
      445.14892468
      793.66854537
      120.49872297
      727.73167555
      745.77690396
      1466.24497175
      2956.13541357
      1053.31139493
      985.40970132
      -54.23174727
      -175.49084474
      469.05083523
      2091.89672609
      1943.88894081
      -103.28099640
      368.41379288
      258.66019424
      -202.90034391
      6.93945131
      270.26371694
      238.74829566
      1852.26332385
      699.42850380
      439.03441273
      693.60516323
      -50.28050776
      4975.44551127
      -4969.03590302
      -12056.44528686
      -1390.88025224
      3431.75340197
      591.78704119
      2142.89313072
      -644.62721801
      3290.86638656
      810.58030901
      966.29699943
      5835.09615596
      1351.07896724
      1438.20160677
      2829.34746961
      3457.41786184
      2719.73725731
      2117.20555125
      1997.51931483
      3581.87700958
      3421.15470935
      3271.53162787
      171.80958532
      1903.07984243
      -1124.12223463
      1475.22975585
      1060.77403220
      1652.63288478
      1145.41615507
      2084.08781370
      1210.75456293
      1094.79759017
      1592.81081972
      915.10622670
      1635.81375014
      1905.26305313
      1450.05218067
      6016.22201497
      650.74163293
      2965.14291599
      3409.59908810
      2976.79751898
      1657.93728371
      1134.64704132
      1038.28014512
      740.26612573
      435.25854334
      965.33308430
      1420.24886416
      848.82564803
      -1096.96402748
      -603.67413372
      -264.97984304
      -1365.46786453
      2102.97582906
      781.37990177
      924.71214572
      246.15747843
      491.75317767
      -3749.40582621
      61.30280852
      -310.64454556
      -757.44867619
      -905.75775045
      -4350.76214029
      2576.93540688
      4382.35985703
      -2700.99790322
      2453.96503277
      1994.53014163
      1553.77632083
      2480.45882485
      1046.90586551
      263.74473277
      9334.67141674
      782.65387532
      538.60141756
      -40161.08078057
      4672.75585465
      3699.04302051
      5494.57781709
      1633.35885598
      3641.97272320
      -91.95356368
      2420.35065904
      -3962.45405162
      357.91030430
      3833.17315502
      578.93661133
      2085.41677084
      2982.54179664
      3351.65809020
      1199.56506508
      2112.30090944
      1094.11391167
      840.26979199
      336.94895766
      1329.23447764
      2140.01961882
      1050.63487818
      816.61843289
      985.42419144
      1513.72731302
      2871.72877071
      836.65308860
      934.70129228
      1153.32763774
      1282.47486462
      1300.29042310
      423.98945247
      601.16987783
      -12.86765715
      1341.09176916
      1003.77529540