<?xml version="1.0"?>
<VTKFile type= "UnstructuredGrid"  version= "0.1"  byte_order= "BigEndian">
<UnstructuredGrid>
<Piece NumberOfPoints="5123" NumberOfCells="5123">
<PointData Scalars="Pressure" Vectors="Velocity">
<DataArray type="Float32" Name="Pressures" format="ascii">
      -357.06349367
      -17882.44249918
      -24653.39774097
      -25493.28008765
      -24261.99582305
      -28560.32273856
      -29272.80775739
      454.66880485
      -120.40562424
      -23569.16128140
      397.60453048
      -22140.43487678
      347.23167980
      350.22406980
      -20993.64946475
      690.50905997
      -515.04658583
      -27025.94562458
      -291.58019931
      -692.68017597
      -939.51075263
      419.30282606
      35.97899860
      -812.30947389
      -166.94077324
      758.33572225
      -349.38371490
      859.77940161
      27.18550569
      160.59590222
      108.97595750
      279.57143463
      283.71311907
      76.17751198
      -27.73490498
      302.91092636
      -52.06045400
      -285.85364556
      -531.14462391
      217.54401283
      -3.93797501
      -318.98983793
      762.54605135
      16.48157601
      269.85496029
      -1223.04087109
      -109.11388585
      -792.44702431
      -244.51946108
      -514.11396051
      1982.32380967
      2052.42904268
      433.79127222
      7426.49526691
      3411.45897950
      -3242.40341309
      -5265.13879705
      -2690.72310525
      3018.81004492
      1987.84509481
      11095.17555818
      -497.11442150
      6391.61774995
      2934.67668747
      1678.42815759
      -1842.63249380
      5351.60369649
      5389.50317142
      438.91104389
      1522.31988273
      394.87158880
      255.66817336
      1252.94136216
      2099.57952777
      724.88911231
      1216.80367075
      -75.66994882
      1270.82159397
      108.95205727
      -260.73919834
      3.84153643
      197.27691100
      661.76088420
      -311.28718580
      644.22224635
      262.46593894
      716.73244939
      2027.28256737
      56.89356360
      -383.29207845
      2736.13030984
      3047.85688453
      1051.44259376
      256.56045944
      1081.07017470
      1737.45908568
      652.85881353
      513.96461890
      735.37037811
      235.47488479
      58.95907400
      -444.33347873
      -163.94428351
      -1735.53382779
      204.33528326
      -310.82438218
      -104.79152012
      94.42702823
      118.70575385
      -218.90576627
      413.46704344
      370.80044550
      296.89724334
      365.24737936
      78.02252658
      345.27629838
      288.65157827
      -1002.23511386
      -767.06837419
      3278.40595181
      5086.05291268
      -2481.62983370
      4766.00818745
      751.09498486
      4584.19224740
      202.66397077
      251.54627861
      1394.41409246
      -2727.16507718
      5529.85700190
      68.54142971
      -2606.62761318
      -24148.52814249
      617.36787706
      828.27741692
      -1837.83227607
      272.95292899
      3313.72422937
      -1290.87601964
      143.64691453
      225.61659447
      395.60944138
      -4703.31228880
      1130.88782735
      -621.14602582
      278.89402271
      851.77554095
      173.32305889
      -685.56036760
      511.09408887
      555.66926558
      -943.75005371
      1103.13987651
      550.59469023
      420.93510553
      117.77537240
      738.43278924
      54.58154251
      -4824.68582184
      286.12082244
      2848.78320840
      249.14459967
      321.09520145
      128.27952539
      2099.84778933
      414.63761042
      -258.43021445
      -109.36911340
      2243.79991159
      9212.73749948
      198.80183619
      -97.92485384
      239.40444854
      189.77592935
      214.69702327
      194.56968629
      178.54656625
      -1047.71198631
      793.53290709
      -488.09166815
      283.56062918
      416.85769033
      844.73497166
      1154.42645258
      2937.48943760
      2591.78910384
      -1256.91418114
      -2566.21525866
      2000.50295677
      6960.91492421
      -11056.95589565
      6737.32174989
      -10035.12083547
      -4550.13742116
      23117.31852111
      4296.59895713
      3203.40394038
      -1753.96949869
      -18716.99888393
      1117.12273552
      2430.55829103
      7860.97671743
      -1239.23851758
      1510.02639628
      4193.64725464
      5106.20121341
      2527.65911517
      1115.29195375
      2459.01384796
      1676.84442343
      928.13537363
      4942.98070248
      232.86538092
      1916.68656453
      1193.43661505
      434.94020493
      753.92266182
      -691.99073197
      1377.58843042
      385.04276411
      519.42948201
      16.54054568
      599.95231292
      962.59616798
      328.94111739
      390.67799931
      418.53026460
      -230.71651543
      691.11701554
      2218.79950039
      907.11411230
      15.04804998
      3196.10878076
      -164.82349945
      1212.37186410
      -542.11848853
      -486.46156095
      1702.13967640
      1117.58600328
      -455.42012890
      -529.41251200
      1377.47974683
      -1136.98325075
      319.16452255
      2606.18306165
      -11045.06583440
      4231.27841495
      3614.85735703
      1598.01835394
      1217.37287075
      3470.08499749
      1798.30275985
      -892.43033588
      2121.56103312
      -5924.65764887
      -2092.85714270
      7022.89970329
      20359.60744354
      -831.87814149
      2381.51233217
      -2324.86973425
      5280.97055747
      2152.49285637
      -4533.80588145
      -27399.67254656
      5343.53966540
      12134.12160666
      5978.34488858
      -938.28457220
      4494.38710678
      1046.73631040
      1513.75592369
      1171.51209719
      773.16370238
      2722.99908466
      494.36899229
      653.04018366
      716.20239736
      66.11217244
      -613.10227354
      523.28558984
      706.50972390
      579.69860078
      320.52065054
      375.93202511
      608.72003446
      718.86569196
      614.92605557
      444.46640752
      658.55010930
      84.46045669
      -43.46982914
      472.13215166
      1026.72631124
      39.72484328
      492.65699922
      1079.51512665
      440.44922426
      156.13312511
      1595.46270059
      324.52160911
      386.61637600
      302.53214188
      -582.65128963
      1382.22890858
      5609.88152828
      7772.62264651
      -1821.42258026
      -803.11646938
      5092.41483445
      5339.51222953
      -2711.70676933
      8620.97717233
      -178.64419272
      1965.81933055
      147.81866938
      2452.25056207
      5832.68089047
      1570.76660936
      1852.95601903
      14079.06432443
      2128.43476111
      919.61172623
      1527.69543923
      3065.02957688
      -8913.16110180
      3035.45519650
      3784.97588015
      705.14251040
      7383.49896964
      -20980.90566408
      6673.14805014
      4006.53699410
      1601.17889083
      3806.95132642
      855.38607935
      4227.10691746
      4570.04007759
      904.43301755
      588.12986230
      6545.53581675
      635.74879426
      1312.04694450
      3543.85658163
      1906.79728637
      2010.84705667
      2103.54907300
      3265.10478389
      1696.58497237
      6497.90058687
      3358.47887286
      511.35910872
      588.67625950
      10.54058483
      2549.82570944
      6593.91700542
      -370.42751171
      -19.11788801
      79.52835561
      1378.29365702
      571.22159115
      883.08707451
      62.69783950
      491.22995765
      1811.30248507
      -484.50747694
      3216.27594289
      578.24936723
      -810.39269189
      1437.03739430
      1426.84918332
      1247.32987255
      7947.88307932
      3953.47727042
      -2218.55432172
      -807.09802886
      632.57892884
      1025.40122739
      2801.21715821
      6535.47582233
      1015.42641538
      -1761.46628445
      3045.86792213
      10979.04812386
      -4.40074568
      732.04936415
      -4136.04970409
      5286.84764929
      6382.79069479
      9055.82720147
      3291.52958447
      -2953.35026318
      2098.77947709
      3232.97996858
      5559.40226838
      6201.21114185
      3816.62490998
      4075.09638905
      877.06348063
      4591.72364635
      6571.63416086
      1405.58322313
      5108.46759406
      -2180.34365714
      3192.29266689
      5492.96002531
      1256.87258596
      6174.47403004
      1662.10026738
      278.96515668
      304.46215322
      1127.26719631
      2176.88099503
      -1033.14543224
      3785.56684745
      290.40626041
      -1161.23756592
      1715.18365014
      2077.08136623
      3119.54952368
      4977.09946441
      3014.42058629
      558.52008080
      5047.42883994
      3089.37815667
      -1167.05907140
      2814.82698725
      -200.57840888
      1851.62968202
      731.46970336
      1470.85788133
      -2151.00461415
      5941.49036378
      1776.40368100
      12343.40355829
      1947.36602463
      8323.40372945
      6133.28932549
      -1591.25502217
      2872.48226644
      1149.72532314
      1376.25072430
      -3350.50341253
      8314.18896039
      430.97023430
      1811.45838432
      809.71497348
      2381.82887584
      1552.04509026
      10345.87911257
      1721.07536833
      3138.15048162
      2125.71335157
      5965.20654610
      2662.29447815
      2630.82217256
      1603.41434782
      583.69496880
      3918.31740505
      680.15819840
      7784.82359773
      3889.59429102
      4070.29664164
      1307.52694489
      1492.58092839
      1874.84839454
      3444.13768224
      1002.61551993
      4072.62862157
      922.89887545
      816.51117509
      1164.08873331
      3129.23388164
      4924.01263881
      1251.44436868
      3065.34741173
      -273.16360411
      2710.92721478
      3318.11025543
      2267.92367749
      264.06870484
      2049.43565030
      2722.36196521
      3732.54662659
      -250.19987766
      1242.64875471
      3669.08356426
      6321.40038354
      -534.95114878
      6106.74080601
      6042.93688249
      3356.98880074
      5751.68721989
      899.45766496
      185.61075961
      1718.54009537
      3869.15469815
      2580.54207310
      -302.12568155
      3756.71521275
      4068.51092827
      2582.37634843
      4618.50473797
      3503.67462179
      2688.02222669
      219.05278176
      775.70413086
      5542.67669624
      141.07676739
      2036.86312751
      3322.79802977
      -1682.46769245
      -4524.13036397
      975.47042584
      -46.75648924
      4667.98320464
      4711.70783642
      1586.37845796
      12002.60343475
      2797.20528568
      2621.07584505
      2082.78236270
      -1463.48445899
      1110.35360728
      2193.74954048
      -575.81479935
      3142.27757046
      2079.23358217
      -21336.21804100
      9665.24782986
      4933.11289233
      -2910.31618955
      3322.85814011
      836.59878304
      1889.60009688
      1646.43465008
      776.61889808
      3049.91079564
      505.45080128
      4278.24114460
      9889.20709186
      4974.78381482
      13603.20028109
      2928.03627868
      3931.33464183
      5093.76235004
      5098.55357284
      9958.16912576
      6507.97666769
      1077.23768728
      9571.64040996
      3341.68351651
      5193.36991791
      9920.83752595
      9076.01488680
      7891.78810063
      3477.05557573
      4902.33158695
      7175.97583155
      1981.28212781
      5465.25479563
      6087.84665756
      4694.53730904
      591.01824274
      6596.95085447
      2240.85346212
      774.89793836
      -717.54782809
      3672.63668123
      4283.25302590
      1444.98413475
      1606.13346220
      7405.87316833
      2334.62652423
      -973.81124793
      414.26340996
      1622.94357789
      1354.28141911
      3079.60639498
      1227.03541332
      7486.33802432
      11911.73576138
      2642.13819560
      1649.37793233
      7039.32459929
      3979.63108206
      3263.41699695
      -125.10668092
      6291.27240101
      2902.20314401
      -857.06415187
      1682.66201594
      1894.24720915
      832.49016228
      8261.22129057
      -16161.55176151
      1264.51637372
      -578.30227699
      1708.32057919
      3133.70561328
      619.97584314
      4778.10080499
      10800.36770653
      1325.26827169
      -2550.22372213
      6429.17236720
      3335.59055401
      4452.79446968
      2509.31771414
      10455.31971207
      -4450.45338253
      4340.78573076
      9948.52662411
      3651.24728324
      1547.57925907
      7785.56731228
      7567.93493308
      5275.31228720
      1700.75535807
      3335.71061462
      4600.21486195
      -1495.69791393
      9116.60221382
      4551.66675330
      755.76209887
      156.99521650
      5990.07615049
      2728.13768525
      10592.69372979
      5100.94937928
      3817.29724049
      4219.02715570
      3503.35553048
      5897.97240732
      1097.05862115
      1202.23528828
      960.82200619
      3054.58478369
      6773.24847902
      776.20353542
      3873.52252099
      -1360.66768325
      1304.66329152
      3047.67917753
      1559.53553824
      1253.95128369
      12501.81921752
      6441.23352337
      7504.82281557
      2411.16072033
      4853.02422506
      5424.83602701
      1378.20084434
      684.53131051
      848.54946538
      5331.35660488
      418.91035072
      -546.82347383
      1421.78063876
      1177.01678325
      -18378.22992136
      -5122.03323266
      3710.91589541
      5210.55581191
      5312.35988782
      23.71194590
      14899.02894360
      4957.15287918
      7581.88707146
      3696.99538527
      8566.23461768
      20454.19794142
      4082.01314974
      28891.17801252
      7178.81026662
      3404.01845929
      2796.75630026
      5384.33136673
      2541.00552815
      2551.31220616
      4311.48567349
      1674.67281262
      1755.79466077
      4008.07741093
      1055.47907190
      4057.38169160
      -18.14056988
      2305.85384356
      1023.77859514
      1117.20999472
      4472.38646809
      3083.60633321
      4863.65276566
      4886.82856271
      -6660.53207020
      4247.61100386
      3636.38784334
      1089.51819263
      -1272.05876870
      330.79312130
      288.24405060
      -1327.20978719
      1805.10564570
      5854.02998594
      2586.78999377
      1788.54954731
      5188.84822130
      3413.76147182
      2087.81763739
      -3251.97910678
      4040.88328631
      6070.34173013
      1031.31874893
      8302.22487866
      -1363.38355393
      10336.09366497
      1292.82501568
      -1144.38671677
      3459.03471740
      3578.42424053
      5218.05185384
      5058.87279156
      1801.30348353
      2911.79866218
      2916.03649979
      2088.76642028
      -15857.23209146
      2317.20057392
      8787.00893231
      10669.85086594
      6988.53636804
      17795.01748775
      7561.11819484
      15687.36178066
      4294.66272088
      6188.28032889
      9990.13113019
      18399.71359849
      27057.63081289
      13656.79919886
      1794.84703980
      5720.28566337
      5571.17511700
      4847.97238276
      3021.46248450
      2147.36696757
      1396.29657575
      3573.23772419
      1552.21117446
      4028.70450369
      4834.73561415
      3226.73118437
      9665.23923897
      4505.82789690
      1268.38636842
      2954.29507752
      -4629.00382666
      1266.54584514
      3462.09936927
      7143.37325233
      1990.98763982
      3059.37169402
      3282.22073960
      8654.71704033
      4215.66972643
      3036.46137976
      -62.04837661
      1183.07819912
      3276.84034814
      8955.23524258
      4001.51594495
      970.72036059
      832.24166431
      -87.35907513
      6872.46525440
      -2.01379510
      -147.09703690
      945.73705146
      3272.81359452
      7889.33773602
      -1410.42499796
      249.28386522
      -3912.23856815
      6342.98465621
      391.65306375
      260.15209975
      -8301.27986238
      414.65658162
      -2058.41848964
      3698.42728878
      2616.98600138
      618.87177843
      -1659.73499126
      2967.05903529
      2561.08364476
      3749.56439012
      6401.01884445
      4405.95009262
      2360.41642670
      3179.79183171
      3925.25053552
      12846.29939748
      2763.24052844
      3625.00302194
      1253.35710585
      -2056.20530948
      2431.16935115
      2232.54465818
      4042.87953798
      2553.94905848
      2053.27621032
      2399.57444552
      2944.09518736
      3254.70527607
      3034.84272655
      1471.75213707
      3488.18695824
      1878.88855683
      904.94397437
      1074.03943954
      11429.98525260
      7831.70153183
      -867.79017050
      -768.16824180
      1188.71932717
      2101.14730962
      6145.06151429
      -1658.30333342
      -1242.23067906
      943.13816459
      1544.86916152
      4591.92675457
      1361.81738105
      2580.48811616
      -1428.87088255
      2023.24346183
      2407.98911173
      3753.16281559
      -21.86339500
      -4558.44625774
      9213.75818036
      -405.94011711
      -2999.79631530
      -612.84014018
      -2211.55632264
      1855.05229871
      2342.57367930
      -4082.38931732
      1780.89393426
      928.01028816
      755.99610068
      772.58339740
      1864.96754783
      1516.89325415
      3294.49195325
      -453.44466091
      4692.86459797
      6924.01545252
      -7886.36499036
      1911.00035233
      -632.18021757
      6315.59693634
      3563.78296376
      8523.94526500
      3066.61839664
      8274.93814674
      15335.49513221
      2341.20448377
      6739.47150881
      1223.30839703
      1363.24343717
      1650.97902069
      3197.93448674
      2130.48449764
      2150.85605269
      3634.71199765
      3332.20502672
      1658.04642401
      1127.08124939
      2329.73395482
      98.99281401
      4780.77022994
      -653.10545300
      2212.16160733
      2004.47253903
      2699.73584356
      1915.04629659
      8079.33323012
      1503.51590457
      953.96835853
      4149.73799274
      4746.59361988
      -2550.05147986
      3884.30181564
      7371.88755806
      1116.83429371
      1138.64651452
      1458.91898771
      569.84719760
      3583.83676941
      1281.08130445
      1224.32498026
      -234.41412160
      -282.22054264
      23.41786379
      4816.50624623
      -359.06537713
      -1193.40346754
      1783.92629989
      1339.80312128
      2020.44677933
      -297.68319754
      568.71734690
      4972.49909420
      4612.34317419
      5077.01023589
      1616.58665814
      2754.80666013
      3194.87415891
      -666.54926521
      -495.46776718
      5944.50346238
      2063.22476818
      1431.78459172
      3853.53251659
      10533.87450844
      15902.43049931
      11162.07424362
      9448.70101454
      5643.67055216
      4574.91617749
      7557.92019886
      3922.36914677
      5425.24722796
      3624.70063255
      6200.51755270
      6045.15266513
      1957.55374783
      1249.48128878
      921.50016679
      1940.97450122
      2402.78690505
      2099.76562755
      -1685.26672895
      1480.78050980
      343.09407588
      1139.53225349
      7109.79138155
      1138.70399541
      4157.77544616
      1223.68201957
      2650.37589060
      5759.95852118
      1279.83259665
      2115.45814535
      808.65474705
      2450.47577040
      2069.27581497
      3735.30055622
      -2319.57477861
      1951.28319922
      2786.77856507
      1506.80173600
      310.49564808
      274.99821275
      263.79747181
      5814.14093975
      -1163.06685974
      -350.46378173
      -2905.39060634
      638.35312137
      962.49191996
      1931.58612328
      -7767.42211267
      -4915.05164285
      -3925.81037531
      -439.39413375
      4583.08204426
      247.95457108
      2790.47353909
      -279.53512348
      974.37861170
      -4284.87801634
      3256.46649128
      1282.57657190
      1998.04471396
      -3021.33501060
      4091.37351616
      2328.75645195
      -1405.64400088
      -28338.34729544
      12684.85693979
      5716.19611908
      -354.16703194
      16614.99732973
      -302.49955944
      7577.76863228
      8886.54154112
      4398.41381322
      4184.06881612
      1474.10595109
      10130.61791870
      6756.38427941
      2751.01101564
      1643.03830786
      1788.30547892
      735.34876916
      4106.72460876
      449.99064552
      4547.95754810
      2081.99709708
      2050.91304532
      1105.85637293
      2402.45422132
      1472.48383680
      4017.68689974
      1315.51476935
      5266.06288161
      3563.47744337
      1386.07423470
      1252.79464944
      1413.52600967
      2035.75286667
      2701.35904416
      -1309.42189139
      334.51654458
      1333.25631856
      1468.36469186
      875.80446197
      1251.74662454
      1619.10488640
      2400.81638542
      1685.74145094
      65.32240694
      2165.94351442
      2460.16234393
      2099.94036835
      1532.47256195
      398.67363739
      640.97033850
      424.85128900
      -1247.70848926
      -31.59183317
      -639.64696229
      -6203.02415777
      -4076.93565942
      -541.21958206
      3344.45792353
      6307.93003246
      2095.27504916
      2590.24601199
      688.11969800
      5914.17469685
      4069.61368902
      4600.68313066
      1279.99646764
      8169.48319185
      12587.51778280
      12684.77320910
      7428.26805413
      159.60323057
      203.93256575
      5684.93094267
      3157.18888605
      5869.02682568
      2122.92010501
      7153.88838166
      1923.39285902
      2706.11110466
      2841.99357325
      1370.85455864
      2184.06537050
      2399.69155796
      2623.77293419
      5595.19649339
      2489.32537651
      226.06096742
      1841.78904457
      3380.92008832
      2067.34516895
      3352.43934135
      3161.55740813
      6590.67861860
      778.87353247
      1922.57208036
      2326.55655019
      2511.85320099
      2165.95042157
      2767.23700806
      1328.83837361
      1437.43654503
      1697.42971314
      -495.58757212
      695.13386566
      2326.90977053
      -844.47942908
      1165.66679695
      3326.79124335
      -1793.78244635
      1122.50437128
      -3963.14354282
      1986.81432838
      -2786.39492781
      1645.34953202
      3152.91004078
      1990.65862451
      352.47726394
      988.28941818
      1847.81379070
      4651.36234928
      3962.19423855
      2788.04047243
      -954.44108160
      2735.08648127
      -590.60837407
      1392.76712924
      -2108.75004253
      -1156.16062121
      9335.91044612
      1022.68702057
      10384.25036836
      1925.38413427
      2338.32205318
      9323.57405849
      9943.65571396
      4970.73651912
      7494.55609332
      4543.52866839
      4639.44608227
      1607.82134028
      2337.13300018
      -4866.72392789
      1826.32870098
      2077.55634987
      3668.48747847
      2658.20625717
      3611.30910655
      1247.03378813
      418.61530292
      1829.75401851
      1262.53332062
      699.36851139
      -546.94688291
      2158.82411734
      2184.53897502
      2374.14446409
      1998.60445028
      4987.61996474
      3386.64919761
      2995.38134173
      2037.32894619
      2672.49333480
      1097.92008165
      1157.53875662
      2105.56323630
      239.11074912
      1316.80428625
      2201.94324005
      1553.39963299
      1289.58323630
      -19.41955674
      112.16575192
      -315.52578602
      891.19578982
      1327.07222552
      -691.87883892
      1163.56015159
      -337.20571631
      -2033.95812347
      166.52640848
      1959.34809301
      1199.67455804
      522.73789770
      1829.32576977
      -1416.18684710
      6214.76701409
      787.98619130
      1853.25760225
      103.88727569
      792.79821374
      -44.98328368
      17480.62390643
      6168.59329663
      3300.95437189
      6711.28526501
      -1361.14528090
      1608.50391724
      -51.64455998
      -30962.88851667
      -5678.75686574
      8709.06603016
      12000.69567089
      6415.05223579
      6739.93442861
      5429.55372629
      -5063.00678469
      524.19506426
      6607.05563462
      507.97509957
      2945.73425765
      4988.27246581
      3816.07807788
      1780.06599648
      3565.33902933
      5502.10683599
      1121.32957819
      2222.77304299
      2028.86667134
      1070.49624644
      2586.95393387
      2828.07432070
      1638.63554535
      1744.78302865
      2557.49018933
      2779.93202467
      2601.28867844
      2681.70809482
      952.21120465
      1168.27140640
      1870.44663201
      426.28690285
      1175.98363927
      2768.95641306
      1092.23805366
      1325.43296470
      631.66218959
      -482.23105766
      1554.09846580
      -364.02064442
      -724.96832678
      1507.09020788
      1938.81377194
      223.91172315
      382.23874120
      756.24245344
      302.84054528
      -2108.99312005
      -1523.68132139
      144.08993880
      -2416.18294722
      -6622.14624760
      -3175.67132843
      -3496.13419172
      -2123.05473678
      7704.96178695
      1252.14557655
      -9476.96389972
      -1468.55973954
      4903.55743459
      6974.32211211
      12017.55078133
      954.21945765
      453.07292605
      7905.17297058
      -19317.15986296
      3439.32525334
      3858.94763678
      10420.98021101
      3616.22909959
      4626.59255525
      1440.14649561
      7913.88834912
      2610.57936345
      1293.11761694
      6204.25991324
      3613.24155099
      836.78460537
      1649.87337525
      4257.03915151
      7354.04289355
      1597.58367790
      5222.05915595
      1872.21490531
      1221.04320683
      2418.28000468
      320.68743096
      239.67495614
      646.67349522
      3304.57504633
      1778.18104879
      1919.59399626
      4836.40836357
      2004.34088034
      2324.74622211
      2828.58219580
      1546.38179657
      3107.53972245
      3475.56576536
      3428.19034792
      1102.35017665
      334.42490155
      855.27715539
      3825.05334631
      2017.45252222
      1070.44038455
      2239.52754360
      1790.68841071
      1127.31108260
      -61.17044587
      2876.36772396
      4050.44191133
      1412.43138981
      -7.18628283
      1153.55813715
      -75.45823605
      907.33799436
      1845.25057650
      -2691.98063949
      -3338.67862013
      3207.24320593
      577.22967231
      -9063.24249834
      264.04371605
      2155.78184091
      6059.75838648
      7835.14283532
      8993.50886600
      4053.30851343
      4116.95048570
      -1326.83467736
      3211.75720808
      7216.89744331
      26501.89254421
      13182.04314658
      7057.52836211
      -2099.31752112
      3532.68168983
      7991.86865796
      881.12737391
      3553.30962779
      3115.60358622
      3089.84175315
      2875.62795444
      9772.08941971
      2384.33906148
      1472.23594466
      1398.11646619
      1665.87953589
      541.62856191
      2311.81527495
      -425.99618633
      2383.30387208
      2542.30373126
      1354.03885129
      1642.66473623
      3103.47536003
      2048.05341002
      1480.80342749
      3140.76910117
      1438.88321195
      1393.25856446
      1354.12296859
      322.43734996
      1177.28251543
      696.75846369
      -393.95867612
      1232.03559884
      2720.76815971
      630.23602358
      839.96029227
      697.16181176
      632.81802529
      2327.37676797
      2404.18945232
      -1567.14678438
      2328.88375049
      -2435.31793933
      -1147.69041087
      -138.88981903
      1040.78600125
      -669.54878961
      -77.01563715
      -3787.33287360
      531.50631927
      1292.49911546
      3348.07722305
      -11287.78786323
      9089.27207580
      -12198.91673698
      1911.29610548
      6329.16160818
      3665.56330466
      1180.60325246
      15581.37591275
      7950.39382043
      33.93035329
      1843.99434799
      1351.07896724
      6139.52018761
      2932.88074850
      4401.62663280
      -129.03391663
      6850.80445880
      3087.23032424
      1806.33583154
      2345.06447688
      2348.84574862
      2085.09138352
      5147.97790984
      -218.51842678
      1802.14709771
      -2429.15000385
      5906.71158490
      -1491.01383471
      2626.20405864
      3571.58227635
      4419.07354922
      2261.54492025
      2045.64218332
      3383.75786449
      3037.90492758
      364.35154290
      4196.60874025
      1653.97436454
      5726.70542836
      1680.73170983
      4161.98986205
      1828.62476656
      -428.43272470
      -1289.75609057
      -1434.79281670
      -1700.33074584
      1386.40631788
      -1646.69407234
      346.22422739
      123.45819114
      2505.31859577
      1359.22365424
      1139.97303858
      -887.48870505
      -727.06036849
      -836.68197896
      648.27501682
      870.38069020
      676.88619631
      -100.77961266
      1032.81619295
      125.75158007
      4651.79040999
      284.13537617
      -3237.99803159
      1835.92884631
      4440.23763546
      6508.75832501
      -4476.01835536
      -12159.51898380
      3356.73166801
      5568.61592249
      1966.74551019
      7536.85500109
      -2559.15562561
      -4764.39502709
      -40161.08078057
      8855.82711778
      5330.73340441
      4617.03993018
      4451.73887675
      10807.23043799
      4140.89378304
      3184.82251690
      17.88137210
      -3171.05151242
      13076.21191518
      263.41218034
      -2074.39412539
      3254.19094980
      4504.89899535
      616.49082253
      4198.78980375
      5145.15634409
      -961.92584432
      -283.13627813
      -718.67040879
      2319.12053668
      1696.78156995
      -635.12473784
      1593.67624215
      1283.79315667
      5578.34538869
      5182.41661587
      663.99650647
      256.09024484
      3333.54931248
      3102.74610009
      202.40870689
      1525.56019005
      -1050.76306880
      2569.38936897
      125.73341998
      1980.23445100
      4161.24068765