<?xml version="1.0"?>
<VTKFile type= "UnstructuredGrid"  version= "0.1"  byte_order= "BigEndian">
<UnstructuredGrid>
<Piece NumberOfPoints="5123" NumberOfCells="5123">
<PointData Scalars="Pressure" Vectors="Velocity">
<DataArray type="Float32" Name="Pressures" format="ascii">
      1265.28654763
      -17494.70517462
      -24395.09423912
      -25493.28008765
      -24261.99582305
      -28560.32273856
      -29272.80775739
      -418.94515081
      -519.10930443
      -23569.16128140
      141.50458928
      -22140.43487678
      461.71599798
      202.48933409
      -20993.64946475
      568.31478730
      -1442.97822345
      -27025.94562458
      -309.50395907
      1688.65454851
      69.75417639
      75.24193579
      328.89067445
      478.63587551
      848.48966751
      189.54685480
      710.29992294
      -563.24244252
      -2577.92260655
      -217.52184707
      -76.27105684
      -485.72228133
      446.18723644
      -1677.30900952
      -521.85322983
      575.76259059
      756.16072253
      998.39162672
      55.91442420
      -819.58480098
      761.09492395
      351.57294221
      327.49684210
      -1632.60614774
      227.73829595
      484.95532615
      475.21274599
      85.75075781
      -334.38778950
      58.19758244
      -830.48278426
      271.80964306
      317.50957712
      -9.58789878
      -48.87529216
      497.17944455
      105.59975371
      197.07779585
      -9.24408819
      -72.36543898
      552.17809908
      -320.26724717
      -761.57675962
      -272.89218839
      417.20035418
      6392.17004879
      2301.26809927
      5389.50317142
      -1261.68104585
      2488.99359664
      -2126.11811324
      -7022.90305739
      1814.42111916
      15934.32829497
      1612.20115625
      -1152.18299833
      -1057.06681698
      838.85210965
      -216.07651908
      -695.70611505
      353.34138830
      56.40790570
      1265.90101443
      -91.27211569
      -585.32714238
      233.57734813
      1291.81209051
      2159.05747857
      707.68343492
      -1400.23794394
      -1052.31928552
      -1614.93655506
      -1078.80642324
      -1500.75775403
      -6020.21603955
      2009.43096977
      1329.10835044
      1016.32398232
      -790.58986287
      -345.09759085
      -766.86955104
      459.00436449
      386.98339694
      381.02139511
      276.88890430
      265.92145088
      456.62699850
      -1537.89710138
      -499.20850622
      295.31692779
      1130.89298860
      -1021.46663411
      512.01269009
      809.72404843
      -222.25949326
      29.88186954
      1291.29492071
      1076.41955791
      -426.96053603
      -477.19471801
      695.78271355
      178.95298556
      588.59576833
      484.84183287
      273.16467182
      -76.87474726
      581.37892594
      1036.21358819
      -3141.74921661
      -5566.29800323
      -2368.02143405
      -5121.76079714
      -24148.52814249
      -2165.36290614
      982.78524394
      1373.14426620
      -2523.04329859
      3595.88023712
      3517.78070151
      1113.26146154
      3564.88547530
      369.80888641
      249.68477900
      814.12099572
      -2235.38046026
      -1436.09151526
      862.63978240
      672.69179089
      453.25539958
      -212.55668230
      922.23489990
      -422.05087779
      553.68449594
      661.03528833
      1734.97831415
      -917.59575747
      2874.15814482
      -1982.13407479
      450.13179809
      2714.22737471
      2067.23245970
      77.54818550
      1239.62992648
      349.54575541
      1609.56681498
      1178.35353077
      525.92623188
      360.80581287
      2569.57410977
      -1064.52777579
      -726.33098958
      -147.78041154
      1677.15166690
      1189.40953418
      -1078.77576551
      -1754.48585887
      -605.25494555
      -523.13611133
      426.37038131
      -1599.66220194
      1104.51398593
      -2437.43575946
      -538.73051445
      -19.77630143
      247.89320211
      -157.25049487
      275.07732755
      -74.05251202
      342.73653621
      136.15365090
      -134.99933643
      477.49510447
      1005.85852842
      -370.04383079
      2351.37391860
      43.48867432
      38264.22990918
      14.50670814
      -18716.99888393
      87.31671644
      4134.57742108
      1820.58390808
      2131.19991918
      -641.97458779
      2493.55138308
      7488.34472651
      1333.85303040
      701.50555835
      5393.00936387
      3055.01499495
      4121.36709110
      1434.42868156
      209.64964801
      1475.31242110
      1608.54178427
      2653.61904308
      580.84716573
      -192.61810857
      1336.48505343
      1558.23123245
      1076.96703386
      1070.64832952
      -2858.35978116
      1575.94645274
      1288.36245079
      1342.56776228
      769.68093362
      2057.18590006
      1217.30457266
      1823.11939400
      1842.94457659
      865.51871440
      1695.53288527
      -1280.56428856
      923.19600687
      1602.77439098
      1997.04624392
      2093.56131188
      1022.55467989
      -3169.46203410
      1470.25634719
      -2851.72532125
      2509.83855067
      387.13696524
      -1690.24313571
      -363.27261514
      158.57048142
      164.04325291
      -348.80296008
      -570.94923866
      -187.59811370
      82.06848324
      -270.12792781
      391.53308073
      634.32375332
      1215.36331398
      3702.40745006
      2496.38999258
      2826.77706358
      -1247.44378704
      2698.62546105
      -6148.31843507
      -8440.62735224
      -4750.09353128
      -27399.67254656
      5987.90413540
      2784.80677607
      3199.98632762
      1506.01394631
      5325.04254789
      617.74397835
      1318.50003133
      2610.36750727
      -388.89861936
      1439.89696499
      890.27155959
      -59.03333908
      1573.99310988
      56.60154401
      -17.07643495
      7.09802068
      -460.62608459
      -526.64529559
      -738.67461294
      325.36983314
      -4116.76869548
      307.06608332
      -462.53734302
      1080.80824190
      1078.07547069
      -7029.37757935
      2391.97550154
      -38.22431077
      557.80839360
      1602.12084595
      1106.15872614
      1603.56387290
      2685.76316186
      1259.59119028
      1740.22791920
      534.58036524
      -284.97318548
      -547.25973661
      21.16910408
      2264.63764204
      1020.26417251
      1098.75047833
      2240.69672053
      1013.72658000
      1190.62610340
      -1821.44571955
      12.46695224
      717.59530191
      607.42241497
      1433.29922702
      44.53931606
      959.17869353
      758.02980877
      201.68852140
      -471.84185344
      -446.53582417
      -9032.33642233
      -4010.86536906
      4082.59549267
      11402.91798054
      -3102.31096024
      -14241.21606719
      -47.56440480
      6731.98947956
      2729.81703576
      -20980.90566408
      9272.04224937
      3863.49588528
      2190.55810035
      3373.56281251
      1083.57233817
      2081.82959118
      3407.41153658
      613.07656105
      1505.26297044
      2697.08329033
      919.10668557
      2822.07946911
      2251.75411371
      6249.81109830
      3704.28677698
      656.08181239
      1561.42142109
      476.52329261
      1364.85916955
      1387.67168628
      2982.83905625
      501.93942582
      -1782.37851359
      5141.68694277
      1704.88485066
      -3774.42494305
      560.20122590
      1168.97209745
      1677.94007705
      124.61654267
      1171.38104003
      2090.80275788
      233.10149224
      -1416.08055883
      -1466.56200448
      -600.86205552
      604.29411157
      499.24315322
      -1736.61782538
      338.44827552
      348.61848137
      358.64599711
      1308.66312125
      1231.18054711
      230.52385151
      -143.42357999
      855.31368776
      17.00856702
      755.89767357
      1850.01391634
      730.21807369
      1753.35402125
      2134.78035771
      1505.88622693
      3670.91207326
      -4816.31375664
      1519.95719928
      -6622.60524020
      -2829.49785844
      8346.62864385
      -8226.67071755
      -153.35397957
      -137.18195875
      756.52379057
      1606.10420397
      4232.70765959
      3520.51566693
      664.59139313
      5257.01096699
      3839.21637359
      2377.54717728
      6890.42114672
      -999.24307325
      3910.05026148
      4534.74822152
      101.05493138
      1432.84062393
      526.15778954
      284.79917406
      931.26490342
      4954.75577432
      1935.82292694
      1310.31447238
      2598.24514842
      1500.70214819
      272.82958920
      936.66956898
      978.37340992
      3647.83232036
      528.42198400
      3626.12366374
      2277.78220526
      3613.23379005
      2433.83047057
      577.87321224
      3513.01113042
      776.07777593
      -2582.62519802
      1029.50115691
      828.44362478
      1001.43093776
      331.97852805
      311.25447455
      -723.59503968
      390.14968999
      4228.46615818
      1971.47942392
      1751.11164710
      1894.43278036
      846.23821062
      -263.33625253
      1133.02716259
      964.67107561
      1430.61471513
      1939.24120584
      915.10740077
      167.97965971
      -3569.74406944
      435.89006069
      1711.69405810
      -1217.29245034
      4094.88512045
      -3065.61358654
      6821.89017431
      -3908.99486359
      1537.20815597
      -14087.27074965
      -124.91342244
      -640.12620470
      430.01255486
      -2203.47005391
      4340.18538011
      641.29454834
      4109.59427787
      -2550.72439800
      8358.40463206
      -170.00333204
      3591.71710782
      379.84126802
      2093.38707230
      -609.97059347
      2077.40150688
      2856.72472356
      574.97114119
      7399.68533176
      -2019.82728825
      1475.03672778
      -6869.32235434
      -1474.12078803
      559.58973785
      2788.04374283
      143.54765600
      886.41623975
      2920.72301802
      2074.50636446
      464.74412335
      1283.29389378
      175.25331019
      3241.96997821
      2237.24638682
      1047.39661631
      233.53254989
      3050.85631852
      -2288.09812511
      3323.41781991
      -767.93038109
      854.76925347
      537.85470057
      2930.62279426
      2493.16349607
      1422.89989964
      2828.25276218
      1228.34356935
      2230.14330889
      1804.46931099
      -266.14557072
      -1279.80331126
      333.00772609
      1093.31974568
      -3151.72712351
      417.40427751
      -2310.86746064
      357.90788196
      2238.82348234
      6299.36396173
      2668.08309061
      6550.03240573
      11062.01871756
      -5295.49009378
      11188.26354096
      6781.46346420
      7241.23315977
      3506.70598346
      -666.20861407
      -1582.38741988
      586.20438240
      498.73402770
      -21336.21804100
      9411.94449505
      3729.99399455
      14498.79596138
      5128.69111359
      965.06427881
      431.96429840
      1137.85472915
      3161.15586625
      1314.23462011
      337.38794963
      -2283.33064172
      3729.11863743
      218.53599026
      6754.07950416
      -50.42594434
      1814.92307301
      3435.96823097
      633.22733729
      2964.21498488
      580.91633456
      1035.77846535
      7892.93475623
      3690.95180565
      2195.00312899
      9391.01023025
      3192.93630239
      6270.05695332
      3295.94227888
      2554.05228158
      8820.52031491
      1657.43718197
      3068.51863131
      3327.73464961
      899.88647970
      1079.75308201
      3457.47128939
      -824.40556964
      1016.07546592
      2045.70556241
      3574.43806071
      3798.78904212
      2204.89369434
      936.68146228
      3151.34118872
      -327.02534391
      -224.46232448
      -1059.90664395
      1104.61882900
      4104.80743457
      -2554.49777126
      -4784.76186658
      4127.50306465
      3025.28007286
      10635.22032517
      3583.81489473
      12795.12596121
      12656.63495063
      -12373.88460248
      -3203.66076656
      757.72927483
      493.29624392
      1597.63296592
      -1387.75412159
      -533.04904827
      2966.96516694
      3493.24166947
      -1365.98487225
      -969.42438740
      -12829.07223042
      2357.74513765
      2851.03390388
      -37.56652813
      3591.47833709
      3542.36437394
      -167.21556564
      772.78668156
      3636.63889530
      5815.51935477
      6500.15056529
      6191.44237941
      3450.60203798
      3425.26769471
      6980.62486381
      1629.68065154
      4434.04048776
      95.37256109
      4998.08188018
      4119.47662575
      2074.88513768
      819.44785055
      -508.95926880
      -1039.76325559
      3638.63413422
      -1644.65555027
      -265.39894345
      803.18073365
      -1567.60398479
      6496.58002805
      -314.90178493
      5536.41050550
      -2251.29502425
      855.64527877
      3165.71925756
      1503.40797571
      4720.37130272
      3274.66816693
      -1129.80502969
      4550.17996315
      4802.12271068
      4520.44263675
      457.59620295
      -4405.17657002
      1360.21217420
      404.91267850
      -3346.09809481
      2211.17172719
      4340.11959654
      8360.30665035
      2014.09023626
      2003.34287492
      4475.79156042
      874.04191491
      6540.41126330
      5362.54197601
      -4335.55499745
      582.39649159
      -4193.14499773
      5143.54690704
      1776.76787842
      -326.36282019
      -483.25694486
      -18378.22992136
      -6329.83687124
      3869.53413512
      2174.71682883
      3185.03172959
      673.99379299
      2404.48493894
      3428.39113361
      4259.73017938
      4656.20074216
      3529.36060615
      7105.94642913
      4900.53970980
      13979.45148189
      10335.94422654
      2787.51719567
      3901.44359962
      3561.95463781
      3480.59996453
      863.08305988
      1754.61186577
      -290.58731941
      3320.93808625
      1499.59495201
      2039.99633226
      3098.52671030
      2838.70261883
      1414.55614531
      491.14269906
      2709.05798399
      4441.11464989
      4849.44577501
      2878.40152724
      71.92471161
      -1668.32949837
      1697.80077175
      4454.43288479
      2886.87930467
      -946.97272221
      299.33278359
      338.41881329
      9625.85323896
      2215.31208696
      4721.82339241
      -1246.27019412
      2896.81606498
      475.64323810
      7338.48766614
      2967.16314344
      865.27584326
      5651.22491703
      5640.78020466
      -7263.44925602
      -1355.94107151
      12857.88620868
      3048.00103634
      1788.16709445
      1773.70784192
      6071.34912650
      -1172.05127117
      150.86916791
      5377.31773749
      -953.22335103
      3153.99430663
      632.49302734
      -1415.31914318
      -15857.23209146
      2400.16669905
      3418.22124164
      1635.61134179
      2085.77984269
      1905.28654569
      10474.97813902
      4685.19048444
      7442.64859780
      5220.00480703
      8881.79768395
      6955.76771175
      8819.03969062
      3287.91678334
      1710.21937796
      15508.11704858
      8157.72240388
      3865.23633191
      2189.60139928
      2487.83971451
      2376.97175808
      343.50767700
      1857.72187502
      1741.38968028
      3059.50082842
      1640.37861235
      5737.81154466
      4242.17078145
      2779.94677205
      2127.14220841
      3936.34314535
      1473.02796669
      3892.21630633
      3298.17314227
      6444.48485358
      4236.94953220
      2264.45863811
      8800.41259804
      1250.01031156
      903.82083476
      -407.24042286
      1857.99441376
      6793.03200552
      12645.55354476
      4336.89590703
      11889.72032663
      -8210.97000625
      135.34629817
      -807.28210128
      3626.26205431
      -1148.32726396
      6237.55772276
      -799.17493184
      2903.10257331
      1644.69967153
      1961.34997588
      -6067.39505186
      9061.74578959
      -1483.86175460
      1603.53119019
      -2806.81100088
      5926.31209327
      3432.29469507
      -681.09101740
      1281.34860812
      1326.13545318
      -2224.57112083
      4555.85665933
      998.88510837
      2525.06907944
      1678.48606807
      4241.99458164
      6375.13236978
      4321.02475352
      3817.04980016
      6366.45513511
      1404.94562282
      2000.99430779
      4872.46442647
      8340.49917382
      3499.02060519
      1597.10286921
      2915.70342124
      2964.72440731
      3803.35990265
      3610.82222640
      3257.00875265
      4472.69523455
      2646.95095508
      1314.53596525
      2874.19434606
      4287.40637911
      4105.88982708
      2696.75113850
      688.27504963
      7467.60898561
      3766.27601482
      1817.88591164
      2752.09628618
      10704.49511534
      5661.25627271
      -398.08846236
      4384.98245946
      4514.26307370
      2899.97646568
      2561.09722152
      1834.14579948
      2899.62648238
      -812.17143151
      3072.22672557
      4675.22504326
      1089.24673175
      1833.60152851
      -3827.56403066
      4108.53982781
      2447.14501547
      423.12864958
      -2429.88524803
      1459.13130018
      2029.02522231
      3080.36895985
      1857.50265943
      2354.38629565
      2234.77303186
      2255.76305961
      3219.50469423
      2992.62672832
      5109.74210202
      -7553.69590590
      -1445.77603596
      -7233.08130685
      10679.68302497
      -7886.36499036
      1438.79205639
      1352.91582624
      6112.77501754
      10156.46305031
      1350.49680689
      4579.85524027
      3464.63025575
      11595.40628255
      3071.36819377
      -5637.33663479
      -518.47610090
      129.88407792
      11211.54099418
      2679.86588474
      3179.32532423
      514.59328010
      2744.08482958
      3067.91438370
      273.08567329
      6393.49775736
      4103.21921134
      284.53758577
      741.11071607
      9451.83518474
      1156.83930223
      -1475.27900122
      2180.76772284
      2427.65804080
      8870.42636806
      4305.44272907
      3836.93880259
      -2090.59150180
      5756.25771987
      3613.40237325
      6829.25701274
      8810.88256915
      709.48611966
      1560.88984285
      -608.88713613
      10032.53325930
      900.84186547
      -1007.06827278
      3034.20756219
      2942.34377807
      1949.78288169
      2494.25359632
      3589.55513406
      230.56508572
      395.21509170
      1783.56453297
      1271.83122946
      2991.07615016
      2151.19834718
      -215.38891696
      2020.67363564
      1169.27168652
      4304.50318079
      631.34546676
      -822.66322741
      7406.73953713
      699.71197895
      -5294.93824648
      1936.29130488
      -3766.30543915
      3099.20451919
      3319.75550367
      16953.86345011
      13031.06196109
      7753.89423856
      7757.26578739
      5686.97731192
      3105.30864156
      8960.38566323
      6949.38916710
      13025.69399385
      1165.09667733
      4093.95290489
      9243.70853094
      3269.70859049
      3459.22442272
      3402.90018025
      1316.75937287
      5154.20327214
      2236.17724095
      1556.23636023
      1675.63084585
      2433.74297323
      1670.58816633
      9796.66837306
      586.59290697
      8576.95716308
      3019.13135641
      1941.15759652
      3266.04302435
      2758.90706088
      3662.39021783
      3288.90303289
      5152.19944364
      1305.42042273
      2581.06585277
      2893.66051459
      3759.97992820
      4731.87848076
      4266.33706822
      185.90263263
      486.27535669
      4449.12760789
      6565.57811043
      3073.20289881
      2390.21057066
      -8063.19288431
      2936.16661485
      6164.01551883
      689.37844052
      5688.92858855
      210.47380838
      483.52002860
      477.57662009
      -1782.76525721
      3202.06153953
      2203.37711121
      -2607.51646385
      -2695.45390407
      3688.40824255
      -407.49588523
      4866.63525817
      1743.95086245
      2003.67866760
      2129.81829883
      2698.13868996
      2651.80042456
      -28338.34729544
      6510.98730727
      3391.33649584
      3210.42544889
      10671.68334378
      3343.57519345
      9327.91163949
      5469.40204277
      1438.69758641
      3146.87629298
      3589.05578712
      2016.43316703
      9024.68498961
      3510.70047069
      1448.24507013
      3736.29806366
      946.68891173
      5784.71800753
      3532.25160921
      5600.34104604
      3246.17169072
      2944.45777600
      1773.64874181
      6120.40587745
      2724.81272288
      4589.35926347
      6203.24404690
      5946.16820978
      6320.39196114
      5027.91758173
      5964.29931069
      4716.80376251
      5470.66814018
      5078.57577340
      1529.51341420
      392.26742545
      874.46250563
      2413.75180556
      2010.14453167
      2204.43662193
      867.95108230
      749.39976360
      6836.21558684
      824.52253265
      37.50065402
      5016.22499170
      741.32566502
      4013.51845751
      1036.43556093
      1782.93383440
      2726.79335302
      2648.98345860
      -795.45424364
      484.87673369
      2416.87642450
      -419.42795110
      -3369.01153000
      -5592.66591073
      -1762.60449468
      -329.38702735
      3913.85394112
      -148.05216592
      -4744.58273318
      118.16296421
      -6604.00384125
      1314.33318622
      1665.74221466
      7705.91920859
      7778.33386175
      4902.01683921
      2609.96118601
      15794.24376729
      6387.77695142
      9120.07121559
      6910.00179492
      2728.74631444
      2541.52180469
      4078.86189991
      5400.28697859
      7239.24506850
      4112.58365143
      3669.83449609
      5262.69884760
      5074.02788568
      6880.03364373
      6774.10296673
      749.83621866
      5392.23629303
      6305.92333644
      5910.08967260
      4803.79132379
      7348.57736516
      15145.51659314
      2932.18567424
      5536.35149407
      4524.61896357
      6097.37873418
      3656.07451360
      3378.93888876
      4318.89257716
      2037.31232471
      2587.82018121
      5078.40304124
      2178.55282116
      -15.62254536
      4538.78845556
      3106.97880735
      5320.85955117
      -1690.50032874
      4070.71045641
      546.04065416
      4448.43432825
      -2746.81280029
      11032.98994754
      6452.88399349
      145.11378322
      -1104.97550073
      -341.34755341
      -1304.80495498
      -116.89057094
      1187.57833735
      1237.41161801
      2323.43272028
      -771.00393422
      5003.01599583
      269.20987885
      4137.10097595
      -13167.35934802
      10626.21640115
      6104.36427852
      -11500.38626027
      134.67740023
      563.47516086
      6880.66905252
      7943.72588246
      6904.79032586
      10773.77015624
      -5908.01492067
      1832.77952570
      2098.17196042
      2366.02467042
      4095.05157035
      2559.30549730
      4107.25052612
      5235.89407101
      3423.80486083
      5326.90096403
      2860.36441488
      1997.86712437
      3272.41390875
      1710.35799523
      1807.29515067
      1856.09258886
      5302.45702006
      5182.62065407
      5456.84461596
      3444.36882171
      10763.08588264
      5636.34543024
      9414.42619802
      5893.47138290
      4550.63966108
      4046.04134198
      3326.05537956
      2764.15389470
      2376.87734462
      3468.96743199
      3670.99110216
      2240.28331600
      886.73067648
      -164.00245183
      2418.80090742
      2693.62756295
      1324.24782355
      1887.55225290
      2699.99797926
      3957.02158183
      -124.45539495
      -964.49316938
      7871.61635119
      -139.19046201
      -3135.73159557
      -796.82501538
      -1260.69367948
      90.78387825
      -1017.82452126
      -3795.96857665
      -2292.50983004
      244.53753390
      1969.09249397
      4447.95438175
      -918.83918019
      1188.29988578
      -17302.92398414
      929.79103224
      -2979.55175705
      -6766.87487167
      -516.88007345
      -30962.88851667
      1824.97902078
      3990.54411581
      9594.76108631
      4162.41557853
      3707.95424817
      3983.10978758
      963.95580685
      1356.97301951
      13445.71110816
      2537.51176844
      7941.44973433
      9761.73605123
      7076.14843826
      2879.53867672
      4335.23557513
      9459.37624994
      2031.75396463
      2264.91965834
      5308.43539574
      582.30518058
      3269.08617382
      5040.53748998
      3092.59330384
      3162.04730093
      4091.71779241
      8365.92937168
      8431.27473189
      7652.37764648
      2010.15553328
      3287.68149076
      2323.23780540
      2363.22662941
      3536.47773657
      8457.32381767
      4185.24660234
      2633.71735718
      1627.03288787
      1541.08392031
      1976.04728170
      1842.41109910
      621.17699276
      3105.25733002
      3532.27345223
      1447.30327423
      2304.91109741
      1671.18272969
      3602.97279658
      -1373.35996590
      891.27013928
      -3453.46712364
      2449.54429051
      -9755.13197986
      363.99604576
      -842.07598502
      -2051.33372961
      1512.92999998
      -1755.94188897
      -1965.17082908
      743.01965307
      551.60522331
      -1099.84610663
      -4820.13547772
      781.54181621
      -1295.77584231
      -967.87264417
      -19317.15986296
      3439.32525334
      9311.41485722
      7938.84228716
      5189.28114279
      7617.14203493
      4752.27317550
      8204.18721603
      6282.15526526
      1528.87654104
      13219.03528720
      11913.11547927
      2207.89708965
      3579.69722238
      5797.22730608
      9026.42524186
      9329.97322926
      5047.89706226
      1463.23997883
      1645.81002798
      1119.85655575
      484.71533010
      7585.21452932
      2381.63716659
      8.83095241
      926.28673470
      1504.68946726
      9109.20771602
      1850.61960373
      3899.14455597
      2976.91903865
      4381.19904753
      5088.86066067
      7782.23452992
      6808.61631201
      1526.10493313
      877.85612873
      2641.58684700
      3644.37658953
      2475.56953943
      563.70650956
      2079.13312439
      2458.29652550
      3380.73358716
      1021.24375078
      -481.04370872
      1285.70979283
      277.92218551
      1657.59635336
      -2368.88811344
      -828.24326995
      1978.56919688
      3721.44237007
      5164.98765205
      3898.22803788
      284.96174429
      492.49302989
      -3446.43742122
      2144.63166065
      458.15124583
      -395.83070418
      -659.76333298
      14052.73056775
      3005.50089937
      1971.50468163
      378.24266054
      3211.75720808
      10112.70336312
      9173.47505002
      4878.26361941
      3868.93879926
      1461.68847085
      3072.24247201
      8822.24813919
      4935.93172152
      4514.74161688
      5709.66770779
      5389.29276293
      2953.14988818
      6164.80947527
      1300.58721950
      2114.65933461
      8102.30795398
      1370.09845428
      2770.17302948
      2318.32296400
      -1395.73841554
      1603.97315003
      2079.97987053
      1912.35708299
      648.40425060
      1476.01791577
      -2772.10557051
      6453.27461748
      5783.05954769
      2542.82131276
      9159.31890594
      -1417.28612290
      1448.46346805
      1831.79030568
      -1475.87632798
      -407.65643005
      -1087.12785555
      3471.39905184
      1823.73725706
      2295.41857108
      1592.72605585
      3350.67076165
      1779.96261042
      1402.56421507
      1413.79717656
      2958.21809239
      2653.83375284
      1454.49838379
      2665.51216293
      379.67975735
      6475.41575854
      4613.31379113
      3169.67745168
      1765.18845157
      3481.00879683
      626.73195728
      -3333.46087630
      -1786.67876716
      2570.45379187
      -2495.59168940
      232.38185447
      -2897.89953995
      10996.15284385
      25660.56783142
      855.09940261
      -812.80690225
      3701.06256318
      1351.07896724
      7332.07855526
      3888.54708450
      5353.52350664
      1608.25865656
      -6516.92500253
      4476.95142528
      7761.84463025
      6658.54594100
      2206.90796804
      1664.12946021
      4086.44481283
      6891.57107245
      3414.22888781
      -3828.51999367
      -1131.38104814
      763.94207331
      1765.15111407
      14236.17659432
      3252.62257975
      -858.08283089
      4193.13744844
      8005.83319769
      12533.20825226
      5186.68913091
      4957.71792775
      4512.28758024
      -247.68138169
      -508.97654785
      4097.20250334
      1786.49286911
      2579.08150363
      -1096.85755448
      2320.70086085
      -1411.36049110
      5763.02939284
      857.24309273
      179.47883819
      1272.69943754
      992.96250372
      436.07910241
      617.28220951
      -207.56804311
      1769.75769090
      6278.33657038
      94.67823911
      -1098.00657586
      725.82054694
      1745.69484623
      2068.70422010
      616.80745622
      1337.04376552
      5549.25632313
      1956.82887689
      1578.97563041
      2744.86818964
      -902.40289951
      -6093.29391264
      -2398.39936767
      1017.81498468
      16692.52194960
      4045.41005869
      3472.26871523
      8577.66947389
      2406.00678734
      -40161.08078057
      6627.45458884
      1852.57107930
      4500.16507134
      4757.81004957
      7099.84597530
      4762.08308343
      4201.13321467
      1900.74370152
      -1110.44252308
      11907.96000118
      199.72947953
      5729.29728572
      -64.55298256
      3845.96652704
      1059.92212729
      2803.54841091
      -319.18534511
      -715.22724922
      1352.31642290
      -597.78825531
      -64.57172945
      -590.54817274
      928.82270385
      6064.97094674
      -1961.69070999
      5467.44832035
      2172.90097494
      5060.85906461
      -43.28971709
      -9240.14643314
      9282.42231498
      9500.21449427
      -3132.10447267
      3417.23257260
      8321.97904065