<?xml version="1.0"?>
<VTKFile type= "UnstructuredGrid"  version= "0.1"  byte_order= "BigEndian">
<UnstructuredGrid>
<Piece NumberOfPoints="5123" NumberOfCells="5123">
<PointData Scalars="Pressure" Vectors="Velocity">
<DataArray type="Float32" Name="Pressures" format="ascii">
      59598.32156022
      4638.48859330
      23916.68522104
      -31887.76816003
      -25076.91863939
      6947.99634968
      -18137.61223573
      37344.38609672
      57833.67946359
      -29210.06386207
      45688.42299249
      -26678.74909096
      48661.86710773
      19599.76844118
      -23064.48563376
      32511.56298503
      14747.96052989
      28837.61080690
      33395.62668025
      -23754.92133034
      10188.08280554
      9192.99091680
      27209.18326544
      38183.39801578
      -23134.02159296
      21466.88451332
      6222.99019863
      10035.64019632
      23064.52211844
      -612.24948997
      39639.88648065
      23783.24971542
      -1619.99915721
      15675.64800062
      21491.18504799
      15644.48929337
      736.71529219
      31284.82668746
      27532.83724208
      -10543.67535878
      20870.72295518
      12676.76873211
      -2956.67723115
      2109.75299248
      10832.26595720
      5085.33875204
      3747.37276941
      9345.86976538
      2645.86572233
      5202.84989921
      11477.67929558
      1417.30948337
      -1070.65199726
      5510.95480610
      6575.73986010
      -3284.26551509
      631.31789767
      4209.26272202
      3352.16039942
      976.60627730
      -2987.00732465
      -3362.55155797
      115.05295086
      627.36966478
      -92.05258167
      -132.56863854
      10872.98269195
      41331.69569910
      29479.14086644
      20830.35596240
      14859.35371755
      14015.66208411
      18087.69079378
      5559.72867352
      19355.70551417
      19680.54476692
      16214.20704661
      18951.29740420
      10332.66614636
      12981.47498018
      10748.12930586
      9101.33007980
      13590.59096396
      13085.59204455
      6217.85166615
      3765.52598961
      12087.87092282
      13166.73385404
      4323.30847240
      5368.35565546
      11600.69226456
      12209.01171143
      8873.51560460
      14628.06461551
      10117.32013863
      7394.44129393
      -3760.56724745
      5285.97164242
      10599.10886714
      6169.95101853
      7563.45149262
      -2336.16818825
      7859.65724482
      10365.97946873
      9132.33215989
      3183.98163272
      206.85607668
      7086.40388845
      757.97169886
      8467.88675177
      9058.40595034
      3658.52538932
      4527.04765866
      5195.07411052
      -403.83016818
      5945.47832126
      5753.04164045
      2182.58960177
      2563.29005263
      51.42323021
      1803.74435262
      -777.33334676
      -1204.14667587
      1009.48987219
      -66.23887679
      1748.90347916
      -4222.32063873
      751.00246791
      -224.42255032
      -2584.96692327
      381.99822599
      -220.75638831
      3328.13914053
      10480.43003607
      116450.72795896
      24670.01162254
      9455.62640843
      20787.63369386
      5954.17666040
      14972.28599891
      23137.57673841
      20169.10652127
      7459.17815675
      24595.88779419
      30730.46960681
      12460.67109537
      2833.37296585
      24221.79289076
      35190.50570148
      10737.86056058
      8492.56977104
      20371.32771798
      12770.27526646
      1655.20513549
      18601.56986042
      24572.47667994
      2291.93261585
      10678.87969139
      3692.37689434
      8731.90638588
      3434.93139081
      5360.85723214
      20087.09869971
      7720.06641082
      5371.78551495
      13725.81609313
      2052.45541072
      -244.91725919
      10992.16357011
      7126.64305904
      62.37822299
      11122.83535538
      3395.61800625
      5814.36267400
      11319.88315131
      7828.60310243
      1463.57734602
      3122.26377017
      6292.94451036
      2125.90233221
      4460.99431911
      4020.51168636
      4941.23878195
      10988.56048181
      1103.32354344
      2619.49954523
      -969.17774983
      1259.71414647
      463.98183236
      2376.58794452
      1472.68703065
      -1972.37484119
      -1750.16283451
      2450.50969418
      1410.14766601
      3101.63315773
      556.52032464
      -716.89264981
      5624.17289285
      11319.03127907
      16132.30952943
      22601.63303095
      13951.39086896
      9865.20964718
      16666.19423113
      7719.71237108
      21328.62490387
      19326.07046820
      21384.60749031
      11955.43059342
      27080.26447316
      28737.36150598
      19542.64419972
      13937.87642785
      21538.99234808
      21354.04750184
      4241.55083685
      17519.75285334
      24799.16372903
      860.70473259
      7735.67660290
      19900.01319823
      9432.19197232
      9621.13342332
      10629.21405242
      5581.12208087
      10462.33965287
      12814.24389868
      11847.34454368
      9973.33584585
      6778.46679055
      2707.35859625
      9769.22258446
      632.57086711
      11600.60665701
      16471.66448980
      3929.01611067
      10769.74930045
      732.93102372
      6156.17348039
      7012.67341685
      7730.29623837
      310.40853844
      12864.16627242
      9352.10682163
      -1381.30398959
      5597.69714061
      6551.40098018
      -976.42872557
      7585.13947570
      4818.27432959
      3052.77847134
      2278.70673349
      4077.09452217
      3926.97870842
      2307.06884369
      3717.89769058
      1870.34106418
      683.34371977
      662.43098235
      1269.04512691
      605.98357073
      -66.31103643
      243.95757698
      25806.87372839
      5573.18282609
      16776.64388112
      22991.71762715
      9230.55643442
      8820.00270650
      10708.39702026
      4264.48177233
      17578.24839094
      14350.35840514
      16948.66823868
      10842.40531896
      19308.20718062
      17326.55359546
      25163.37532279
      15456.04058275
      29954.58632463
      33474.04127314
      -8980.42046250
      26004.77833047
      29878.79749471
      10710.49123280
      12544.66735582
      16255.76402338
      12814.09239168
      16607.31623330
      11283.93786812
      7200.48082338
      14605.30102527
      -140.07984034
      7033.85760117
      17147.71338544
      6270.78622701
      3296.86553376
      12041.09560654
      10162.33375915
      5562.14753441
      17730.47647233
      5424.02311100
      5831.88169982
      12838.43490872
      10186.44878193
      -50.40596498
      6653.10948201
      13591.58559081
      2875.38313879
      11394.22000229
      8392.10338337
      1359.41806444
      276.72970790
      4775.31589644
      2133.26002152
      -991.19615295
      6608.65755486
      725.11353950
      3567.02464781
      4185.46517930
      -238.42931239
      2646.52481036
      -1074.57846386
      -225.20063631
      1485.52007897
      -956.78675944
      520.13163897
      418.94013012
      -326.51123036
      -6200.77094885
      -15859.43539892
      12151.31168210
      38113.73606643
      12557.98747842
      -203.08496811
      16028.08720933
      20364.80254470
      17553.56408726
      47088.69101196
      24018.75230330
      -778.84007858
      15196.58440934
      24642.51885177
      18672.60365656
      7056.10887787
      30384.65905664
      5386.82258744
      13060.41991519
      17651.87559059
      28877.11406208
      5792.34307154
      13440.32954204
      13130.48728669
      12919.94884712
      12894.18895917
      10765.54524228
      11722.56400983
      13989.16898461
      5441.91765167
      7243.05444059
      14136.65257432
      12178.36735438
      7198.57825034
      10064.16490350
      15734.78656921
      6056.02816414
      8306.12078026
      14925.49145653
      920.64410129
      5549.62313094
      9039.55053465
      1279.43854253
      7780.65083570
      6318.31726286
      2629.42703792
      5555.90839418
      3311.09472419
      797.85270738
      4818.92278106
      4664.19714438
      4227.77619219
      5942.24026409
      3489.38707145
      1364.35078648
      4103.54028351
      2153.54677596
      2754.44117941
      2685.56567018
      2342.94703541
      1955.44735318
      666.64939415
      669.30513277
      639.18121539
      133.65770995
      -60.11358901
      11047.17909971
      27596.91396545
      -13178.06646273
      -2845.74002064
      -25072.67156214
      20728.38561248
      28571.00368423
      17599.93318449
      6840.14968288
      -16693.00737363
      20492.17861623
      13505.71716021
      3374.87604784
      17418.27757515
      22262.33651607
      2383.02377379
      20157.90921035
      30643.04394139
      16990.38239086
      11352.87316821
      28535.15545651
      16871.85375338
      18931.34741104
      17507.46690254
      5433.37116136
      19529.87804787
      8965.00772539
      6961.95582977
      17033.10688609
      9087.15497228
      9178.94147355
      14170.41714703
      11035.77750316
      4939.83433656
      14582.89312834
      10664.43241392
      5712.27902360
      9916.81914238
      7257.63638107
      11517.60866171
      6454.37550019
      2867.78774580
      9799.81323167
      5767.30874127
      5566.29282015
      8359.28927339
      5060.37630219
      4508.99988699
      5424.91503507
      4720.91854562
      8839.28825403
      4704.12005460
      3669.34584682
      7055.73258628
      2178.68389902
      4341.05327328
      4155.40642798
      1332.24934351
      3799.47798306
      2504.21860294
      1161.40095434
      1330.47802952
      164.38661385
      -175.25791345
      376.12719930
      -120.49555670
      1668.13673051
      -15435.14137159
      3773.51797684
      86011.58302619
      21688.83234116
      11215.53110661
      64239.78308430
      -30036.50675869
      40190.53191810
      -1901.07689781
      3338.04995493
      8924.67062978
      13701.87011509
      16093.43030985
      27860.43947116
      9848.39357370
      15451.28243035
      21618.55400839
      18028.17184961
      20252.60679701
      11613.23066462
      16623.38470308
      21207.43194820
      12656.86339646
      18046.24636271
      17161.20128469
      9542.99779958
      7733.28054421
      11891.70753784
      18151.98821425
      6741.30011547
      10202.98735697
      14356.77960811
      4541.65988703
      11824.41812487
      13590.19018407
      2621.01342580
      5995.36194082
      11535.88173821
      9193.79559075
      6894.32707968
      8946.38874269
      6576.90615785
      5164.83676135
      7841.58667470
      6702.19307809
      3328.90785244
      6960.72557093
      5933.52885900
      3082.50364371
      8340.10440975
      5867.23635149
      2766.21959520
      4140.88190018
      3483.00592961
      2984.45233433
      3270.10799331
      724.99231436
      2691.07038875
      1839.34781503
      -73.32301558
      446.27456662
      856.13643383
      176.91842456
      -590.01620992
      -50.41755552
      -42137.80144888
      18337.43719189
      1352.39658361
      -8778.85990675
      -16430.95798245
      17153.17351965
      33653.89946455
      38574.83060562
      12047.02752614
      4728.57939456
      5565.27219867
      21154.21271748
      14400.01759752
      1216.26892448
      11928.20331724
      812.36607124
      21226.86629336
      21796.84842924
      4926.71427678
      11961.58764747
      21484.55384681
      19392.49241575
      13743.34367561
      11477.34251799
      13849.05171741
      19754.89264473
      18900.97474379
      12387.14404499
      15240.78498998
      9139.85584871
      5459.03305180
      15481.48842065
      10848.50234725
      6436.34135447
      11282.47389556
      10671.87918138
      16514.84464563
      7728.54313540
      5298.19280521
      8971.22407881
      5945.41850459
      8687.74113828
      9380.46279609
      4200.50826327
      7049.56965505
      7681.13745045
      3701.33536330
      7423.56038694
      5765.88431267
      3062.55690038
      6615.97625908
      3794.82363590
      2826.91453526
      6015.51027643
      2237.79721088
      4190.29929355
      3170.47552471
      1.18475913
      2828.63756675
      2012.74541302
      129.32843723
      760.47486098
      559.16043957
      877.29005471
      -128.05351633
      -45.23189324
      11284.21246927
      29359.96119370
      1903.65046966
      16685.35390537
      26654.50703319
      2508.23070632
      -10254.08415256
      -4599.59408717
      12929.81440285
      16997.18725832
      20631.41366523
      33980.77199734
      17177.38643814
      13625.09380155
      27090.69455335
      8663.23732962
      10930.72924648
      56468.96777280
      24533.57914645
      13275.61523166
      21033.88008587
      19431.65149437
      16173.40365013
      15018.49934041
      5196.23646731
      18670.19315095
      18970.19701063
      13924.15198554
      14324.74687058
      15435.04022742
      8825.80829886
      14525.92821805
      11479.80216753
      1218.68901542
      7482.51194614
      15499.75010962
      9456.10894211
      5159.05443407
      8589.29236329
      9876.84787834
      5098.89244232
      8558.62005491
      7885.05829636
      3198.92147049
      9617.72979784
      8049.77099605
      -142.23758702
      7110.73048024
      8066.08711786
      2348.62101203
      9477.29003134
      6952.17281361
      17.48954041
      5292.34746698
      2138.89056843
      -332.32126325
      1809.99747041
      1518.52666335
      675.83078012
      1157.96129513
      751.09202645
      773.81757869
      -10.26773925
      818.21334859
      103.64742401
      -539.30967766
      -49573.36331796
      24029.15093547
      34455.32845789
      41447.72807956
      30200.20812047
      5738.23777402
      12373.55571481
      23898.51899120
      19342.85793466
      9864.10738592
      3207.15389904
      28565.26715815
      13172.20636599
      9435.54363377
      16520.07707413
      16515.86662515
      21000.75337440
      22608.59693955
      14648.53653543
      9310.94659068
      22293.15228963
      22594.25541258
      15153.58998187
      10625.72994429
      14604.85482494
      24523.82869244
      9967.97627889
      5366.21213770
      18640.31223403
      7219.14586437
      7031.56807806
      15473.02722247
      13852.01592110
      12350.69763539
      10349.90580853
      5545.98084706
      9462.55723445
      4936.06547132
      11309.40791485
      13483.75578761
      5681.29858356
      7148.37017555
      8601.58504142
      4079.58411227
      5525.89448909
      5680.51752835
      1669.80567048
      5401.79808469
      6460.53361235
      2630.49766743
      6608.39528565
      6524.40136537
      1504.28179418
      4970.36693610
      3279.79922863
      3327.74210977
      2593.04149914
      2505.73201947
      3703.81826352
      2523.96697949
      669.55863801
      2141.37082839
      1263.14821661
      -335.08662027
      1351.54649042
      108.67835907
      19189.84746207
      29655.32564737
      -13565.32867312
      19585.41161650
      20569.52058776
      -310.45595225
      27106.89931712
      15137.37382282
      24837.29639153
      25203.90801249
      9779.49579904
      29386.08459685
      22172.70948685
      18837.39684664
      24190.24708958
      31761.58636692
      14847.87024855
      28769.47181378
      15073.57696397
      15953.21023702
      23353.30992678
      14684.11565189
      21316.38793868
      13210.16628314
      7190.65808473
      22157.72698368
      16897.11353659
      5665.86615373
      13359.53992194
      13515.94322027
      2768.48082884
      4869.85289359
      14116.23570538
      8300.14101960
      9471.16568083
      10095.11743390
      13524.41719913
      5885.74956666
      12812.84371925
      9744.94389142
      4875.03025532
      9758.31448667
      7240.48401719
      2951.47853337
      9142.17885210
      6235.36742203
      1923.10640370
      3183.69596321
      4797.96197341
      2460.12659735
      2093.35743209
      3790.24854419
      2806.08094672
      7098.28888118
      3426.26697531
      1773.17856859
      4839.99437311
      2754.62550635
      3259.50947840
      2518.72544456
      384.70151510
      1958.64270688
      1832.33583413
      122.02002070
      158.76733752
      667.26349388
      16236.28637224
      18147.90050565
      15440.63624380
      9224.42128233
      15941.01440943
      11670.16071450
      14448.83657255
      16995.58515342
      12305.80639919
      26043.10301621
      24875.48859188
      20949.45522595
      13688.42963828
      8317.11664108
      25420.36921731
      22122.92861318
      12559.27796418
      16823.15345838
      19236.54212607
      14246.84644091
      18037.19653671
      14797.46070835
      13749.13776791
      12682.88004038
      11258.44563737
      16939.62762595
      11748.64337738
      8710.72766521
      14120.44807470
      6027.82652885
      4762.69706624
      7518.55954417
      13476.47576684
      10274.29265452
      3702.66924661
      9527.24040002
      13455.99397914
      5858.60692695
      7298.58139431
      10711.27659032
      950.43236350
      7291.33581498
      9907.39093621
      -58.79862338
      5518.31539177
      5497.08849876
      2656.38219189
      9105.95800245
      3868.09343153
      698.55441825
      7284.30923194
      5372.68475535
      2783.77424551
      6574.46062592
      4056.13693813
      1180.99684967
      3853.73504331
      2795.68045115
      1556.52018414
      2192.27620427
      294.50245596
      1143.79599249
      -31.05928178
      -41.35286864
      29.13138444
      128.48885517
      5362.35078318
      16876.27353378
      7655.49462677
      30649.44147351
      29659.30002351
      19369.76369521
      31350.71416612
      27617.69244159
      22706.96006149
      16216.68840764
      31202.38815253
      29853.05600057
      24969.18099767
      9913.56186546
      30337.70988368
      20535.41121079
      14184.27498413
      18214.33899035
      18637.07585390
      11544.21690156
      19530.30499405
      6063.81384848
      17770.41161711
      24001.28903755
      732.38573034
      18390.46572105
      13089.77149280
      8351.70045599
      13577.39908668
      9695.15384167
      4741.67143038
      4104.26497990
      11352.15205438
      6902.89048088
      7037.08671993
      14021.14343344
      8103.93814216
      6226.38530758
      7839.73912987
      1823.89505653
      5414.25554403
      9283.92637070
      5353.78494345
      8000.20335291
      1247.72714491
      2717.85993622
      3565.87303636
      3847.39793651
      6607.43618779
      2358.41483644
      3918.77198932
      6790.67422801
      3240.00400470
      5181.82380528
      1769.02775231
      1378.54127553
      2720.15020215
      1680.77742663
      3354.24607092
      1177.87451475
      -422.70079239
      1402.51493210
      1272.26944293
      -305.76095724
      501.57261904
      -862.28204207
      41795.17537356
      25153.68752159
      18142.40234098
      21075.37402881
      17997.32324250
      12639.51888368
      16995.81534492
      15039.51721770
      20237.37342256
      20286.66321024
      29551.45027250
      20217.87981412
      11385.34015564
      12757.97020976
      20872.30549542
      19817.79106649
      16424.21765558
      22220.06604552
      26385.96870464
      20045.97779752
      16757.31394776
      9340.08327025
      23258.95347133
      18084.73311222
      5248.87163467
      19459.30499838
      18517.80912010
      8867.36551141
      14885.58978355
      11931.13486859
      14646.24240560
      8136.38974690
      14863.04791232
      15929.88317672
      9072.06714954
      13112.00816284
      17079.60907731
      4907.88993120
      8235.24632219
      4771.32420232
      2929.96111147
      4165.81591562
      7854.58894057
      1414.02168851
      6048.97882012
      6779.12609965
      5012.02081100
      7745.96348089
      4598.28862358
      1622.52877746
      6386.60504905
      5826.01428355
      206.19277427
      6658.00027928
      5065.45910700
      193.84503573
      1895.64167138
      1155.40185555
      885.15847648
      1434.93924989
      996.78424372
      1365.15911576
      1428.54553507
      67.59460777
      -206.84441944
      -613.40537909
      -1108.71622993
      25594.20252198
      12150.36286307
      18340.11307013
      18909.93141413
      15762.22524499
      17762.61696664
      10455.07967857
      7351.66100331
      14666.04888980
      4297.11119200
      13099.43974676
      21669.16942309
      10807.91605963
      16779.24512174
      12075.54690911
      8126.15782282
      16609.15777207
      20754.45336595
      19080.77817517
      7099.33006189
      10752.19979700
      16703.29914088
      15084.38979595
      9357.88415911
      20018.92245082
      18179.10949495
      12091.22339526
      9106.55694961
      16870.92419943
      10145.48107166
      3253.96163039
      11682.00957128
      11150.03716251
      7073.86011923
      10604.47088910
      8442.12004148
      6417.50461855
      8544.70804105
      9179.34238827
      10532.08837222
      1427.91573383
      2379.58283850
      7582.86031650
      4155.41992433
      6855.26483740
      2449.09069436
      6337.04357121
      8254.78011049
      755.97268903
      3615.23663837
      5962.56167117
      -340.19532220
      4415.75596104
      3169.48391072
      2871.99992125
      4408.09611295
      2153.59683343
      465.96649957
      2068.52030717
      863.36007562
      1051.72404121
      1210.91234416
      142.30730976
      515.22353429
      239.42571923
      22450.47091007
      11060.79613228
      14523.69868521
      25615.17012143
      21165.36404858
      30006.62360513
      20557.44951523
      12619.49397112
      8054.14804370
      23649.35911777
      17602.79784242
      11505.02107250
      3985.02700401
      27488.10168761
      17077.80105088
      4797.00199881
      8188.04278252
      12840.77773371
      19728.09947005
      14165.17054476
      7206.78851456
      9063.28701785
      21000.53964722
      9253.52969175
      4691.43670690
      12797.74275553
      20491.36031379
      8679.75419810
      17066.08174422
      13037.11050530
      13619.93802815
      6275.07448328
      6854.46088912
      5899.92001556
      6131.88813672
      9291.96548870
      8244.80574534
      4412.24179802
      7228.74324325
      2758.88561170
      5593.00799040
      7216.92591939
      8462.66922443
      5327.84479051
      5068.75417642
      9336.87885390
      6010.36669612
      -96.27916273
      4031.43441778
      6141.79931392
      1303.15361805
      4238.39336468
      3310.36420163
      1234.94150848
      2112.97129302
      2012.55261333
      3607.55593780
      2362.34304201
      1273.34778013
      1587.74977277
      596.13514255
      1221.80719366
      1022.45138752
      -77.69170147
      440.20838556
      226.98568710
      20668.93218983
      19283.95569304
      -11006.46330228
      27743.59249306
      22905.06626684
      21841.97507368
      28659.86315461
      14865.51752422
      7355.72878018
      8278.58913364
      15820.25453768
      16148.65024000
      6085.02001376
      23468.84360507
      19442.99807858
      13451.30569312
      16970.60264077
      14572.42574550
      17576.78637818
      19801.89809389
      9064.84868894
      14134.27991762
      15313.91489558
      15824.50757060
      13337.68966977
      16690.28042359
      17352.48906850
      14845.02932949
      8909.10857032
      18697.89904249
      10660.70914780
      -677.90031581
      12716.90318210
      15025.28844204
      13247.56669041
      11321.49685664
      9010.80881553
      11795.93703564
      5506.25059958
      4021.68097143
      6344.85904464
      4957.70531262
      9323.75999857
      6675.15889780
      5446.38730939
      7589.64898063
      4860.01735275
      1783.34301420
      3907.40592927
      3213.18807665
      5249.26117596
      3520.97949467
      3276.04317896
      4726.06829787
      3323.48606914
      732.51099191
      2535.92531365
      2202.62896387
      63.42843340
      1726.83733719
      1955.02284762
      446.43667212
      -866.97841369
      354.39904792
      -261.33035301
      -178.21281830
      16220.56644352
      24926.33518125
      -316.81385891
      5700.67759383
      15843.98030418
      -2184.36170544
      3939.78070006
      14328.63069443
      18212.86405429
      7888.24103714
      17425.71684270
      18805.26652416
      21753.01405344
      -1784.44409510
      19620.90065936
      25125.43497865
      12806.90829350
      15656.71168075
      6502.60346104
      22801.86382057
      20229.42545985
      2531.04855429
      12282.68505037
      16381.02449236
      9911.40002152
      14959.31092923
      15939.19713601
      11554.88992270
      9521.76279941
      8410.45787404
      18063.03693332
      11861.66024522
      9648.25457989
      8606.43005800
      14517.54182197
      4525.60838521
      7271.78153860
      9055.96788295
      5712.10624245
      5478.50826772
      9244.24715525
      3118.05601193
      8202.01446728
      5173.18132122
      3801.76805119
      8566.04229637
      8176.34778836
      -269.39351939
      1687.63111392
      1844.85457868
      2816.59045607
      5456.29610462
      1833.27228836
      4479.44061396
      2510.92689247
      516.80204645
      2283.19198623
      1430.55545410
      -208.56448087
      1991.74826337
      283.19301533
      701.09006197
      -55.01050113
      -125.65409315
      -495.63485957
      -118.31829584
      6492.53951996
      15373.89387131
      6436.28597933
      16796.77365678
      21195.46286634
      2807.46467797
      14796.96866635
      14856.05752074
      9418.54444867
      10565.12319087
      22457.84796530
      23598.73070090
      18449.44556143
      -1127.72877604
      22623.55890411
      14215.26064746
      21769.93389724
      20191.79077400
      3975.13652760
      11696.89739822
      15343.87192604
      3363.43505469
      9202.83092807
      19099.53812608
      12232.98715003
      12503.88088000
      12096.54263489
      12753.90687136
      9689.77326376
      9372.40419256
      14466.74750637
      9305.83347081
      13046.41367901
      12265.57140228
      9825.44727798
      4541.40648838
      11383.25206053
      8199.49579357
      2219.00751840
      9271.41463364
      10228.44889502
      2481.40335436
      6087.84735009
      8116.17345894
      1436.04260620
      6464.07358870
      4635.05427001
      2421.21627163
      8216.40232176
      6677.49158318
      512.31328554
      4819.46855646
      4095.28851276
      3146.33240514
      2194.50626425
      2831.95533577
      1128.01259932
      1421.61245803
      1092.68521392
      780.53068741
      743.65420347
      594.17036313
      71.07405725
      -3.00785901
      -692.18394043
      53.10346390
      26951.44785469
      19927.15727305
      5951.94762346
      2620.75813147
      9968.22514328
      7249.09472960
      12019.34430073
      12131.31000658
      8658.23214372
      9246.71659959
      15646.22864361
      9788.35488883
      11947.19331836
      12162.50470090
      10840.72533854
      18341.96743960
      12129.80121802
      6826.58755857
      10064.27893059
      9601.54211650
      10691.64304050
      9629.41306576
      7643.14955785
      17170.20714531
      19273.67805490
      3995.42724641
      10851.52954028
      18690.08888565
      9812.22065944
      3195.36003771
      15340.59582678
      12571.28234263
      4925.83782231
      10074.28130153
      10202.81043138
      3930.74808951
      8746.93262274
      6463.53450211
      3217.25221658
      9728.50618482
      6155.74498347
      6454.53120772
      10191.57115216
      4916.48541687
      5284.93033764
      3796.12613149
      1854.83322115
      1564.71577077
      3755.67196905
      5271.09443369
      2690.70940518
      5805.88063667
      1770.10311851
      189.52889786
      2584.71551714
      2521.89684469
      3028.23093120
      1106.19560583
      342.98419970
      1212.92109389
      157.30850781
      -748.73414768
      -397.19433983
      275.08985254
      289.92398997
      -46.76970398
      -27476.63101061
      7784.14828297
      8786.46736208
      19103.62275213
      3094.40975932
      11910.43303918
      3988.84809303
      10825.82114947
      27571.27040194
      16664.45140021
      6376.06313173
      6415.24817553
      12162.27666248
      19711.72252426
      14711.15501429
      8878.17424297
      22536.93969388
      11256.69013671
      4886.13979577
      5478.33138288
      5627.13848005
      4528.71296725
      7683.32939328
      11212.38084480
      19454.38242346
      14659.53096196
      7856.42360122
      8547.53954668
      13005.72179196
      2682.22764184
      9453.26260737
      11092.17964612
      4494.24772347
      9162.93893987
      12176.51977039
      11018.32662254
      7886.08618085
      6029.59093021
      3814.81890113
      4997.32290779
      5161.07041157
      4558.66198235
      6856.61171713
      4295.73732931
      -316.49436695
      5563.83353569
      6126.35069019
      5402.63571610
      3659.88231267
      3358.21121334
      727.82277940
      5267.56189855
      4649.21476448
      781.74554400
      1314.66187242
      1672.47903198
      1679.29207330
      1851.64159250
      -172.66432049
      1333.23918096
      -386.79362792
      -748.47275628
      297.88919591
      55.79093360
      190.07553243
      97.63198473
      8792.05349336
      20972.83473979
      11701.19441765
      19693.34011808
      20676.63885948
      14370.23146446
      3907.87596134
      8617.06357681