<?xml version="1.0"?>
<VTKFile type= "UnstructuredGrid"  version= "0.1"  byte_order= "BigEndian">
<UnstructuredGrid>
<Piece NumberOfPoints="5123" NumberOfCells="5123">
<PointData Scalars="Pressure" Vectors="Velocity">
<DataArray type="Float32" Name="Pressures" format="ascii">
      -2219.60373667
      2701.06856430
      3168.41623553
      -35561.77368429
      -25076.91863939
      1538.27265914
      -20482.92742986
      975.57686913
      -2438.15826830
      -37979.07088609
      1730.68146507
      -24929.46055353
      -4936.25912080
      2289.91111369
      -24289.64383439
      -2139.98626324
      -28172.76905675
      -1156.07782282
      1646.41356829
      -19896.22698744
      2300.54658187
      981.32310242
      3024.14463655
      490.33603241
      363.77026566
      -1069.94703454
      -155.85668481
      -134.53027914
      -470.25805260
      -640.29497728
      307.43588148
      2047.76628115
      234.31121379
      -1620.85492835
      -773.68331183
      768.32204359
      332.08808821
      2444.41901594
      279.02251006
      -384.91401990
      -150.51895304
      9.52578642
      255.33567530
      -2559.89135841
      -712.82315517
      661.91899689
      343.36769253
      1684.45958862
      692.36873904
      -189.44021316
      1226.45891625
      1706.88091630
      -29.04162600
      860.02514354
      -2663.88815517
      1144.31503006
      -3368.20897243
      -391.76129029
      9.67187284
      -510.48964460
      -111.00760122
      231.96694489
      970.71295714
      -1722.80559762
      -930.23871479
      -636.65435932
      5014.60320475
      8096.20208115
      2816.88262721
      2495.71020416
      687.78235933
      370.60510932
      327.47312484
      1460.99960610
      -688.10270825
      -67.39038671
      -55.10682145
      -2197.31006464
      338.83266448
      51.70403668
      -3591.07638888
      -1191.30906468
      2842.44008585
      4098.86501639
      -6212.56836915
      2852.39599257
      -351.56472880
      411.41148506
      -1584.45046352
      4382.32853722
      1204.27651081
      813.96575769
      -96.21835702
      463.42394818
      746.46980185
      178.15176482
      1275.10781425
      -235.38433951
      -1254.95652656
      587.93360384
      413.38247263
      -3910.74225667
      132.08575367
      1087.63046874
      -771.89191997
      -108.80070385
      699.46770946
      -2442.83892930
      -580.61715416
      163.00198628
      859.33416049
      61.27508249
      -291.74451316
      -654.38671762
      -54.95993212
      -17.40648199
      899.94150209
      1542.44597639
      225.01393207
      -234.94958922
      1036.62870454
      5039.72058062
      -618.99024702
      -441.74564119
      -385.83410339
      -70.08715093
      162.00949454
      208.72987333
      -241.87891059
      -801.98459965
      235.07500451
      1879.07973572
      2565.98494548
      -1005.61177156
      3034.51998633
      639.27585706
      4978.32371022
      4477.24886258
      2099.45989104
      2868.11184204
      2062.27679730
      1614.16602666
      749.57767389
      882.18518108
      341.75267078
      2039.32753773
      5048.60336436
      2688.97825181
      3132.52856761
      1333.58740842
      2322.40473889
      2097.87194838
      1533.31561596
      1409.81107296
      76.15588481
      436.66984418
      941.75724869
      1693.98257839
      4612.41525794
      2599.36723330
      -2590.30960538
      402.05976884
      1915.18346663
      600.13975315
      403.58684451
      2174.69491461
      -2289.24942269
      1557.61705137
      898.36751760
      435.97093533
      1987.56418519
      1253.12878928
      237.08345034
      1238.05942057
      2013.48775648
      840.72230574
      62.18821377
      -1777.93256994
      252.21919081
      -16.32614535
      -476.78639809
      1337.52176940
      -1078.75479539
      155.98889504
      -1233.89420472
      359.64595428
      778.53538621
      -477.38356543
      -1176.96469302
      -162.18865286
      -645.39486265
      21.24288238
      -153.99354170
      2377.10778635
      186.81078525
      17.58673621
      -258.86960229
      945.80351582
      3551.72613680
      4032.22072866
      -3949.30091910
      6358.83829031
      2596.77251919
      2883.89217043
      4912.64667450
      1088.87681516
      1539.96102021
      1347.80340825
      2408.27866388
      1915.32532572
      -54.42771561
      636.74794500
      2813.91813850
      820.16597439
      3515.01290528
      2556.10088605
      3603.45116816
      4826.50141586
      66.57515539
      4614.84690108
      2465.85682011
      959.06105377
      807.74644809
      1917.55138903
      2289.45509557
      -910.89075886
      1174.49678988
      -230.22094830
      1185.88725345
      -1634.10752770
      -636.69333776
      2895.29146447
      -72.42189020
      1016.55683214
      1900.72695389
      -278.34026951
      -1168.83281892
      849.58560631
      465.34585473
      -422.36176623
      -1115.40059885
      776.69955755
      1743.49687109
      1779.23453213
      1395.51636029
      96.10504259
      -198.71961060
      550.04632642
      -1224.44232742
      862.89049189
      2898.96452696
      1618.86891875
      528.53491185
      -159.60853314
      661.34328228
      -483.68096512
      -938.19401153
      -1847.34276882
      -2345.52323348
      -1294.20040545
      -1346.89916427
      -1025.73413501
      -896.06303118
      902.40697010
      6925.24894861
      -5148.74788664
      3473.81407219
      7889.33570894
      5696.69326233
      8192.92556817
      2542.67007991
      3426.04327335
      323.35226393
      1166.99086194
      2243.94204647
      1505.88951451
      -3551.14077293
      -2619.13246561
      694.15165411
      -3844.21443495
      4672.06384564
      1615.94537501
      853.66633328
      342.93424226
      1798.29933413
      446.81743249
      2170.84872061
      1629.73440090
      1689.87833064
      3647.71791675
      4015.62230412
      892.00456508
      2750.53989439
      3647.08861206
      948.79746751
      12.53864539
      -102.59985411
      1141.26873081
      112.42545650
      1231.20181139
      2159.58274604
      1867.97258697
      -2068.35166840
      916.42892376
      1062.75197540
      2884.11599141
      1998.28638674
      2177.43577374
      309.80424087
      1713.07827008
      1397.18901511
      -282.70872797
      -1089.31261128
      -1801.36712102
      -6209.58860701
      179.67090601
      2917.93262903
      195.35525826
      -37.91739122
      225.92158870
      3687.02835713
      -1207.09280267
      -1584.76090377
      2148.19614226
      24.77281075
      -1945.96735083
      -1629.00552168
      442.94652755
      -118.26520868
      607.20767417
      -17305.06999468
      5074.11269588
      2426.87705280
      1784.88445994
      4360.70809293
      4617.26442684
      12372.59216685
      -644.98733493
      4884.65554915
      1968.12457988
      7392.59156162
      11076.98157200
      2203.86027708
      2247.11719285
      4938.12817372
      1839.93180087
      5987.23125763
      2494.01447540
      434.40860673
      3135.65454809
      468.86667786
      -370.10766734
      132.55802721
      1997.05003520
      1675.14905467
      823.98424354
      259.19230205
      1131.88571901
      340.87419152
      671.81227759
      1553.78746644
      2811.22174436
      807.50116505
      1630.13542107
      689.90389780
      6178.23601771
      3429.92194425
      3906.37506309
      7587.03531820
      2793.36893773
      1642.78445542
      1475.12916952
      7614.89967350
      -1191.84677016
      3931.96799053
      1721.47776653
      2720.63349509
      2039.55712811
      966.87657796
      -644.81815969
      -120.74837630
      614.90181428
      -7312.87598047
      2228.81932828
      816.83638427
      1072.59835161
      -955.06131876
      1015.56049400
      856.64949256
      -1142.18997495
      1335.63188962
      1388.16709163
      117.64932256
      624.40602623
      275.20642798
      16.91253332
      -28807.02041058
      5480.48103730
      885.83365435
      5978.91986645
      12885.70496973
      2931.80039270
      9787.93203903
      2944.29777767
      7937.37753447
      2261.39188374
      2515.88809674
      1937.02235107
      7794.65128859
      -3217.93119935
      2193.00632979
      5392.60993933
      9241.47015101
      535.43516206
      6452.87033888
      2842.02471295
      -4652.38433367
      3696.08149956
      189.03568562
      9639.61680074
      824.64610756
      -1861.65491167
      7975.53300219
      843.31149491
      -19.76722527
      1316.30952868
      7273.76442143
      -63.18757367
      -1374.44250234
      393.95236967
      -763.60656563
      1711.21575057
      60.31943047
      968.99254016
      1607.80255859
      1942.59084490
      3130.95825648
      4060.25182196
      2955.96759547
      -1423.49292114
      968.88509658
      -60.64756155
      -1146.95495262
      1548.13463572
      2080.45368309
      5878.23192971
      3620.73296241
      -215.26256981
      3955.37783326
      2691.49006703
      1368.86956008
      -1747.78366350
      -636.05757881
      -663.72783568
      147.44839453
      -1247.65244216
      2820.00893953
      -578.98003272
      -959.72159177
      -177.20174185
      334.51999676
      375.60467027
      7410.92217576
      5070.71137932
      4386.56482503
      3041.99761641
      3174.04916435
      3294.15889779
      2726.43448808
      3221.12733362
      17149.06431322
      20771.92379963
      -115.93168699
      5520.15524180
      2594.40436772
      6195.01989037
      4542.36490329
      3323.08509844
      6286.99398636
      -1889.49539173
      4025.88980030
      4495.07843040
      1091.93207215
      2452.56045309
      3523.02389593
      -9782.97880967
      5964.16298068
      2989.93134804
      911.92284756
      3135.46180776
      2690.59447187
      1310.04940027
      7435.78060647
      44.37713059
      3498.87318131
      5249.29827857
      -37.25518411
      1139.76984058
      -530.33173888
      316.07677678
      4375.78333882
      6066.48364701
      1447.86119895
      -3417.97901522
      -1470.66175880
      6036.58051111
      4539.75872634
      1216.97365395
      97.13521794
      -3864.35288184
      3830.51956641
      -3340.65776995
      3010.94941767
      225.13254168
      2435.77146502
      767.55062517
      -371.86451070
      417.41601644
      711.33129047
      -178.56906495
      355.11707158
      2551.93698920
      1808.56263360
      1266.93249752
      -1082.01929122
      1107.98495892
      -113.12147992
      889.98313665
      -18063.76538625
      2764.03829476
      2489.51173274
      3655.92564848
      5993.55166942
      4800.90890529
      6889.04294644
      2987.17440354
      7060.97615611
      1485.69257371
      5039.18097186
      2387.23657142
      6530.19693944
      -552.49726172
      3420.73095419
      6184.46099648
      5834.77422641
      1704.33851206
      2221.57801242
      3007.31602147
      1171.39644837
      -3246.85691073
      4073.36540229
      1647.27680911
      -163.76273079
      3009.02426864
      475.43756900
      3536.87053398
      481.96079873
      572.78087773
      2343.88155332
      1892.40263074
      -531.52176753
      -1229.97383644
      5045.19959347
      2363.22953935
      5280.94896987
      -744.37613150
      -2306.80482892
      1430.60897681
      2942.20655975
      -1423.35808072
      998.07912151
      1854.12183325
      1781.57790354
      2082.57510180
      3043.87628802
      2526.37528870
      931.44328737
      1733.20331367
      3748.27306201
      1564.16394353
      132.31256192
      1507.57042164
      1567.69155942
      -608.31488993
      -374.49961287
      1605.45571088
      -135.26019164
      1781.17486792
      1181.35289962
      -594.02329537
      -2206.08504069
      -250.91027340
      32.88362826
      -251.71412121
      -35532.71009678
      3464.18401234
      3479.38402126
      3882.69758668
      -5230.15005845
      3875.76589304
      1239.76177934
      8437.67073910
      1433.31674537
      3586.53303734
      3126.35899327
      4499.91516084
      3825.59535318
      824.39762055
      3484.62108835
      2343.40273408
      8297.12326002
      2506.37842758
      8264.30180135
      -571.59755299
      605.91637104
      6747.32319151
      5200.36483197
      2621.79644992
      3709.78873308
      4096.13762702
      -141.01711246
      686.39191090
      5276.17502848
      -321.06706805
      -1196.22499076
      2418.16024376
      319.40663793
      -3327.31380556
      7594.09104605
      2439.32588206
      1163.93532415
      155.06494511
      -1314.87671457
      2535.59565708
      1759.15849828
      1173.45333726
      2424.10303684
      -165.26690922
      6006.37128300
      -3811.97739344
      578.45958029
      -1426.55237196
      1541.58587902
      4181.08190164
      1260.70953634
      2707.30851606
      1383.45942819
      761.07306722
      3376.49221106
      805.14155283
      -1735.42998406
      -420.45985145
      -548.81189138
      -315.85820984
      3504.50764557
      3972.49700430
      205.12788482
      2172.57808612
      1076.50464811
      1341.62179843
      -32327.05726218
      3740.32803179
      6255.25974238
      11895.94455251
      2943.31534762
      4747.83692987
      510.69993143
      804.21668355
      4042.18309308
      1962.36516226
      2779.74208409
      824.91707241
      3658.47246570
      2570.56136149
      2702.87001254
      1084.43447755
      -1346.44241993
      3110.27795911
      4857.53682354
      -531.81025310
      1015.53051940
      648.38745247
      -1386.96774704
      -779.20251939
      1259.10583995
      1265.69356099
      6163.73911933
      3956.94580557
      1969.20089496
      2118.08377334
      4956.77106235
      -1751.97423488
      1556.04592463
      2362.42932018
      -960.09469236
      3350.96618294
      1472.71910018
      975.87778636
      1943.43245126
      5184.23231664
      1793.54599355
      3722.34279908
      -2715.15510432
      781.70903073
      312.93384790
      1321.63620553
      -751.11582932
      1284.70775139
      7629.48765559
      250.75890369
      -1556.94369837
      -757.42799786
      695.19368822
      4663.30259102
      -454.61918749
      -1344.79632712
      3738.49638881
      -3020.48780194
      -322.00525402
      -306.84271739
      5176.71183827
      7679.98511573
      -1664.59748673
      -1535.13030331
      -569.98318763
      1328.15587414
      6322.91694471
      8316.54593515
      2106.94606721
      6738.91528227
      6726.49611949
      3302.48574837
      1245.05764734
      3415.71602090
      3204.13716225
      213.88016833
      3676.43891303
      6710.44608695
      3748.69050547
      -684.18250030
      -2116.18812349
      629.83900039
      8375.00866062
      6246.05665265
      3065.00418462
      720.88617677
      -6214.83419254
      2577.76303424
      -295.94480052
      -705.45795909
      328.32599147
      -1078.52751411
      3135.17671103
      4443.71463805
      3222.89158362
      1366.56358611
      3507.81343644
      2110.18336906
      3573.79036329
      -1276.48251515
      2174.58515609
      133.57682218
      2724.18623317
      1787.23375099
      55.32350990
      1997.45172096
      855.98168622
      1482.88612542
      2137.30957756
      103.81699545
      1807.10777792
      -884.31471920
      1594.01351793
      2249.32204681
      1606.44091616
      1973.23857317
      3302.94361021
      -3360.38320251
      -669.25673562
      -1789.98843347
      -4223.99244309
      -116.51871191
      1661.48928357
      1048.87769904
      2802.26566685
      361.11108495
      1671.25343930
      -613.40895454
      -733.19977080
      -464.14147510
      -706.04839755
      17.31043730
      6487.30068158
      4253.41990876
      5523.63649591
      7783.56738329
      17940.86186900
      1741.35560662
      2658.90512933
      3891.51895779
      648.63829526
      1754.16110786
      -403.67528614
      -83.55061139
      1502.77770611
      1155.81827611
      1208.86203922
      1805.00994258
      -1882.93326888
      1080.86680525
      1110.91683564
      -1619.28873120
      117.31498341
      9226.02616872
      512.65947138
      1751.68147719
      5340.55843737
      -1932.13286429
      2383.76224216
      1733.28604164
      -1303.11482527
      3289.84873104
      -461.00287441
      1600.14320198
      1132.15718540
      1603.58896302
      1618.70517457
      2181.95318654
      1994.84608869
      -4238.00606393
      -1449.90108142
      1349.49383244
      -1258.61065859
      5055.85201801
      4245.97393186
      54.83331609
      -1348.81686972
      197.66264694
      -2169.03805867
      1499.49808941
      437.68333200
      -331.46657861
      -875.67839792
      2226.04137639
      2706.72070188
      -409.33421319
      239.55213663
      1992.08829128
      322.85649172
      -237.64631103
      2154.94727080
      1266.96339877
      1153.26919850
      224.17585810
      -1470.56251061
      -680.09819333
      -525.82257906
      -894.24973058
      -5854.06852465
      2275.38460670
      4310.13267884
      8833.82360439
      5605.53356725
      5661.48761485
      3384.27975342
      -55.88979932
      2364.99685171
      4632.59232939
      3540.46624655
      585.82164219
      1452.71281375
      2688.69997165
      3042.50273145
      2178.98998089
      1940.59899469
      2240.47951184
      2694.05775028
      3709.08711148
      3076.22174078
      1268.65196099
      2038.03935844
      -887.13600748
      845.96629275
      2038.60487979
      743.78948169
      702.67420457
      2543.88347941
      2897.81868548
      -1925.79043461
      2309.64582116
      3493.42140162
      752.48016821
      5893.96860819
      214.58691020
      1893.90544607
      -507.68758182
      5949.33294121
      4501.72165545
      1316.50813222
      2991.79697689
      331.27119529
      1830.76855709
      2349.37819697
      -9.07537621
      -706.89791957
      204.84287939
      2215.30707912
      134.88070928
      4113.59069346
      1624.63871687
      -170.24079521
      1262.19865722
      410.49797753
      929.34846816
      366.88717262
      93.83494599
      507.87603239
      -754.01008572
      -952.53725344
      -623.36142971
      1346.02125535
      583.24686421
      1030.37889905
      552.39372750
      1962.28147591
      6157.61799053
      8673.67181442
      3527.91747345
      2024.29806757
      4367.17279394
      7667.17272513
      4186.11744290
      589.84457437
      2487.67067892
      4674.26982782
      1379.04402464
      -384.72448518
      1488.70412405
      -577.25762351
      2944.31197872
      -602.92839980
      4078.58979218
      1059.87556227
      636.36270656
      1388.96836758
      2905.24579510
      3711.80474964
      2300.89998879
      -54.07884262
      2512.00633516
      4957.14434257
      -82.26417937
      3016.73943822
      5669.17786937
      1967.99000178
      1623.38161762
      3097.27435483
      1163.43599844
      1348.45229228
      7136.80138559
      4207.05327119
      2756.82270196
      -993.23592053
      -2985.54476819
      634.61967969
      206.20824810
      -586.87734281
      -419.25174145
      2851.87873936
      1845.20965140
      1054.29067449
      1285.52510021
      -1960.50446798
      -396.41989577
      898.07470811
      1633.64436771
      1479.77037596
      314.92669212
      1483.52080541
      614.41020106
      382.04345884
      1757.64742620
      404.75733444
      49.25362415
      1804.42942279
      1016.54092832
      886.80307225
      150.33083569
      1258.61842255
      1753.44184634
      4773.72094260
      -1449.54574461
      4903.07422470
      2443.51842091
      3795.67826929
      89.99934182
      592.48736701
      3920.81266448
      684.69807502
      2122.97596949
      2357.58863775
      4451.65568845
      7109.02985701
      3585.01245548
      3805.03094261
      5456.21754146
      6336.79182106
      3879.30573313
      -7170.58704002
      5553.66828770
      3445.65023404
      4027.33035302
      -1050.48388797
      9174.81955827
      962.12612992
      12836.71169602
      1191.57101892
      1931.44230105
      3207.40498147
      884.75588004
      -574.39508696
      4081.09123713
      5917.33610639
      3703.70189346
      -5457.39985678
      6534.54457337
      1539.78222977
      569.21431713
      1907.51825673
      2549.80121326
      2814.51371547
      -1120.19867226
      2644.58731026
      4151.82011076
      3883.45966810
      -223.81496581
      5059.77743840
      -3396.67740427
      -2745.34832585
      4116.10876918
      923.58733962
      1032.42719313
      368.60479439
      1258.78249165
      1880.63129969
      -67.35666325
      632.38439321
      1229.81914483
      -324.45171710
      1032.57411524
      -162.62437565
      -1070.93359614
      -394.72649137
      1084.18755857
      165.76687513
      1445.22500398
      617.89187718
      4093.24165999
      7203.44373618
      1014.53612131
      4471.75521374
      352.97964251
      974.32217855
      2013.21357419
      2533.67977538
      3099.73070410
      267.16766354
      1015.27544937
      5157.15683210
      -743.44473230
      5362.34723975
      2134.66623587
      7992.64242322
      6106.33317935
      3541.31793274
      9199.77212911
      5661.11212283
      4881.99909665
      3476.31580697
      3879.15981300
      -1958.85610638
      5227.52474019
      4308.09990785
      4234.27078297
      10510.22677845
      4277.33159604
      3299.89310465
      6989.37288318
      1375.27250832
      2975.57103676
      2807.03381098
      3076.85619013
      3990.62329168
      1769.54126264
      992.04030150
      2590.11026359
      143.83176660
      -6904.87724039
      2344.26217875
      3221.62991356
      -1101.54379455
      226.87741983
      -1574.92882088
      -609.11950852
      -2290.86044115
      1011.48782725
      2019.95567007
      2625.97558206
      684.96159793
      -1604.87635530
      1727.43832100
      865.86264368
      370.49468692
      1787.04623188
      1303.40370938
      499.27205916
      -1383.70841844
      270.47901047
      147.54047814
      174.52092181
      948.08114980
      718.57874589
      1131.70040091
      7242.34105899
      2202.82306111
      7927.01777703
      2434.22499362
      1711.20098868
      4666.79627698
      3916.67960566
      4227.36504147
      2082.93591101
      3033.20914142
      6315.26691806
      5451.34704524
      -1541.24298651
      10708.24728696
      8898.55213605
      2669.98848964
      3969.56114905
      407.76356221
      382.19022026
      497.57397655
      2323.30815032
      4475.28696384
      1402.03343119
      1608.85925177
      6239.32630405
      5129.41273780
      4426.61648503
      5931.25390258
      4857.86267435
      4567.91403923
      3738.83269292
      2854.21077701
      2445.09954437
      232.43833512
      2551.91476365
      2343.55068472
      1332.12388879
      -125.24939791
      -2674.90456327
      7109.16862061
      448.17367973
      2507.22437697
      5861.24085966
      2339.38437947
      3627.55749229
      1183.44847866
      555.71845356
      5508.55470979
      1115.53125051
      -994.55389610
      528.22397781
      2241.76937246
      2379.11054746
      2517.54495620
      1577.57314726
      -577.08065402
      16.57581291
      3139.45817233
      4369.24612456
      1196.95652867
      -1591.52420407
      922.20128302
      1818.05103961
      522.29469542
      1316.06060766
      9492.08831160
      10375.81094246
      2581.78543126
      484.60027403
      8727.79921491
      4054.14162576
      2110.15258198
      6261.64548904
      1349.39085775
      342.30861570
      4081.84104782
      550.15798288
      6606.91581888
      7409.17129761
      2814.90779123
      4757.67169857
      4627.92427494
      2934.89694861
      3451.83342189
      2468.91213042
      1164.20436775
      -4755.85991936
      1934.53667840
      4034.93774749
      -4481.39522754
      3883.59829395
      3638.96081713
      1972.76056382
      4387.39105437
      6209.93303050
      5028.26249366
      4747.70701750
      617.41516645
      6317.16523261
      1027.08417736
      2920.05443309
      3327.50899493
      1393.54317248
      2620.92451124
      3201.71225833
      103.87546792
      1848.13515841
      2703.42936714
      3396.56242662
      1898.78818747
      4463.32655060
      2661.54143412
      4109.65816524
      2990.24285306
      1112.20989298
      831.97511689
      1394.61947664
      -292.12913481
      -487.06495216
      673.10548997
      -1540.32714475
      3344.71740089
      -1508.52272803
      2165.02390276
      1284.45115707
      969.98158079
      1724.58950233
      134.15473037
      2235.36661239
      5951.45437953
      7793.87032727
      21103.43135141
      3359.08382331
      6545.81410427
      9184.99109470
      2572.97689156
      10407.55859355
      3530.50050208
      6897.09211301
      10659.03736211
      6245.58704378
      2157.80316367
      2720.23313422
      9774.15416613
      3288.28908043
      4390.04422073
      2772.47945990
      1431.46132307
      6373.15265207
      2430.28129128
      3902.06554024
      4671.41602828
      329.86612809
      5457.18409780
      2862.90847175
      4186.05616569
      13.61868884
      649.97225572
      7114.79791135
      129.95951684
      1849.34856078
      -3646.78125347
      4183.04128574
      2246.63964795
      1334.83164114
      4426.46532243
      7415.81509265
      2558.36025400
      -5362.60434794
      -2639.06766384
      12174.68089596
      1562.73775267
      783.55147635
      2493.79116840
      1722.62671243
      1144.60731954
      1659.28427341
      1341.16525007
      2152.02801486
      577.05488430
      1599.45647041
      2613.91525530
      -1283.27535350
      10047.48141371
      -255.60316534
      4004.58797702
      952.42598046
      -147.54393387
      2714.97772624
      2627.62960226
      -1705.97994786
      376.73234444
      2152.53973330
      66.78236674
      1103.05293456
      3007.03112899
      106.78259471
      -2834.53661687
      3478.32213246
      2893.10351588
      3897.57366958
      3349.69026670
      5194.57640855
      1667.46767010
      235.38941302
      4092.99022449
      5379.66013460
      10130.45568419
      2044.90420776
      3233.54312751
      3676.65642658
      6670.51287033
      3952.21562745
      4410.21848893
      4381.77662665
      4108.53762007
      3537.54223795
      922.13749029
      2043.19519426
      1899.36858021
      5999.87922989
      3298.73767511
      -175.74832937
      1194.54838295
      -2243.47272022
      -422.74185232
      2698.16861507
      5047.04300411
      5123.48140396
      2316.80718558
      3491.00321819
      3674.75886370
      -151.59842896
      -1588.75590157
      2814.27283374
      4231.25440658
      -427.81927641
      3340.31677110
      8991.73695377
      -180.10257796
      -460.53095915
      6551.86264130
      627.38489391
      -4680.95984155
      1373.77086743
      5922.00875450
      3027.24184323
      3895.43484530
      -333.57253199
      1426.91038744
      1709.81484017
      695.45971628
      -8879.88316407
      -1745.26660442
      355.97689799
      3357.55611233
      -3214.85021939
      -2868.99571563
      2257.19033761
      183.19937462
      2231.67927789
      4406.13650845
      2599.97147778
      -19965.59071168
      1778.54983512
      3328.66744354
      3680.37474369
      4773.51513989
      5357.00699787
      4234.44204147
      3443.80670206
      1823.67836035
      6900.17243470
      2769.50523046
      7692.74963378
      8709.14863672
      2126.27667048
      -1141.42221571
      7427.49769816
      3630.83751012
      1962.62342288
      -12393.62669298
      1464.48194947
      -11605.63725115
      5170.85357592
      -2902.57414286
      6182.16622736
      -3085.03752564
      10593.98594443
      71.73331334
      -2198.31907259
      -3793.91339484
      1773.85668474
      -2344.64699927
      -2723.65621308
      339.01704968
      -1579.26741153
      1095.21652543
      -1329.06636074
      3570.34467664
      -1681.21722219
      5564.71262298
      549.42008950
      3101.43573492
      1055.24114030
      -1315.57745931
      -366.62193437
      4284.68857358
      -5417.92152988
      5984.09110237
      -3041.43365712
      -181.00847160
      5124.11002211
      -284.69765192
      43.94017614
      -4947.15086169
      -1826.49638350
      376.63777825
      8922.78941979
      6398.89504578
      836.12329215
      -1908.00829653
      -40.31575216
      2210.75208754
      5520.79030004
      1202.29396222
      -3005.13574276
      -1079.14612884
      1686.79933730
      -20679.69231914
      5464.77239113
      1925.08459167
      3903.72166099
      5876.17633451
      4981.25642905
      3353.81147026
      3236.19362767
      -2857.61786475
      2643.34399673
      194.25044675
      -26421.17897161
      -24527.92107967
      -7965.52796955
      2291.08393118
      -8729.49104525
      -6862.09435616
      5551.46118700
      3159.64411572
      2698.29094696
      -7281.47182549
      40.79866175
      -5079.46763760
      -785.32321003
      -1654.82384400
      1345.97544228
      -223.26439542
      -15021.69063733
      1847.22886092
      -1864.70085537
      449.32406905
      255.38230844
      1451.22072043
      3698.25311135
      -36.33498374
      3623.91592462
      534.81710176
      3308.94117025
      -1665.64175806