<?xml version="1.0"?>
<VTKFile type= "UnstructuredGrid"  version= "0.1"  byte_order= "BigEndian">
<UnstructuredGrid>
<Piece NumberOfPoints="5123" NumberOfCells="5123">
<PointData Scalars="Pressure" Vectors="Velocity">
<DataArray type="Float32" Name="Pressures" format="ascii">
      128474.53697213
      694.92385826
      20243.63561441
      -37511.53645641
      -20814.25525499
      42817.98604066
      -33352.96420528
      44099.89209593
      43968.22442847
      -31131.43161920
      44265.05540950
      -29777.63003927
      30093.43352177
      9479.54073936
      -17327.21552873
      20723.16964059
      27921.74906487
      42644.56380672
      28327.09775536
      5807.42860010
      17474.33155984
      13552.04313804
      25331.69643778
      23249.67438198
      21436.77558819
      12390.61066364
      11206.38232789
      23305.95937279
      7941.36730158
      5474.75847808
      18701.45039792
      14569.60142515
      4109.87717365
      11685.00767878
      5153.65834715
      12694.79494548
      11220.15400556
      -2152.82763610
      15820.11444517
      12429.84184999
      -5134.68774411
      12296.49400618
      7756.05561511
      -606.88747437
      5485.30621461
      4170.11209992
      -1319.19832721
      1704.12506074
      5202.01031875
      1850.67273862
      -606.12722740
      1417.52174241
      6325.34236476
      6095.13811781
      794.18600692
      814.15631293
      3350.51364074
      2064.41056920
      216.63402574
      1590.08736334
      371.99009026
      658.36549525
      532.21616394
      -981.49267861
      -360.27444424
      -600.25385569
      9867.03447669
      19384.91948589
      18377.38287837
      16172.01176912
      4507.76010135
      17207.27466048
      15572.52311139
      13125.60951652
      9974.60415877
      3634.26342960
      12642.69648747
      16771.48903556
      7632.73861785
      15370.91004842
      11967.10849307
      10943.90868300
      8397.58199901
      8073.58130490
      7591.71376296
      11798.79391401
      5262.03940545
      12080.34276139
      3717.68467358
      4422.90724333
      6695.56853767
      9459.54337281
      509.28852496
      2679.16208429
      8322.53381470
      4135.24585263
      4465.31126494
      4241.27909695
      4088.31181737
      3282.13361983
      2707.43141982
      3321.66616093
      4764.49959074
      5080.18633314
      -1484.44793550
      6764.08405484
      2794.53402192
      5817.54914760
      -274.56009966
      2181.99713360
      2569.84636317
      1817.59559666
      1230.97828011
      -760.40402864
      3505.50722216
      1663.25362193
      582.05606233
      479.61080789
      -75.58407236
      1099.49049053
      -487.13598836
      -822.93848519
      836.39335846
      1331.31192769
      267.11484768
      -1186.41094385
      1847.21768733
      1098.90438090
      539.68354715
      923.93143460
      684.53450792
      -42.64723727
      -5363.06407818
      6027.64911337
      130900.98857309
      14755.16164220
      19866.66234205
      10293.59703200
      5473.26060854
      4871.86292274
      10624.48689866
      8836.63157654
      15150.33260167
      17043.75420348
      -2703.00040329
      13426.29631831
      16693.62410815
      9212.83535682
      245.41983706
      17373.27695399
      8683.63338495
      5304.46195229
      12418.42274367
      12858.16425871
      12470.93916345
      4938.03433428
      1525.13102093
      5448.72332115
      1675.38516820
      9830.52225135
      6560.00558191
      722.14496114
      13684.27502830
      7467.24796278
      -641.14293615
      15312.98402548
      5768.41764645
      -1601.53135569
      5191.87123682
      1690.01640495
      3193.94014097
      8170.60103564
      4145.69395630
      -1720.73718627
      2181.72897090
      551.05876668
      1812.32050172
      4750.52430939
      369.99534421
      3261.74763676
      4506.73275235
      -3860.52496183
      5807.79083811
      2611.89010887
      -1278.39517925
      3272.19541514
      1080.47793039
      1108.44656356
      1319.08433277
      -332.91430748
      2659.56126432
      2382.09947348
      373.81950438
      611.67767300
      1980.61594111
      837.00672932
      -550.09578440
      174.57285646
      -1819.39425309
      8806.85175903
      12679.62337204
      12312.48227618
      -624.59028601
      4538.98318187
      9986.11726803
      16188.55856334
      19574.96549607
      8856.19504962
      26859.96821784
      31604.10484082
      14732.87965031
      6884.54440561
      18341.73581415
      12136.37257043
      12626.73313928
      12959.76887528
      11957.32086195
      16765.38660354
      17318.38088079
      5713.61602581
      14187.42002775
      16242.93514637
      1458.43160614
      8605.34556140
      9103.77866992
      8226.17411676
      8580.73931766
      6153.87367559
      5060.03667508
      6800.63006516
      2903.01045311
      4949.37083842
      6739.15634625
      1754.07847046
      11201.63284939
      6024.75090280
      794.71368957
      5601.03642503
      2752.40624224
      1808.82771778
      1650.33843751
      485.72470504
      7031.92417001
      6922.00468485
      661.12113067
      2311.92920602
      3044.79874128
      264.87315274
      2728.78721345
      3278.00821724
      868.22410799
      3272.95451699
      930.76299176
      2906.38211250
      2505.62961621
      -395.37492287
      1703.26707432
      910.14351312
      -118.46374289
      1426.80435291
      829.05493552
      -351.20498486
      -43.69899207
      421.16061801
      24195.52708881
      18100.35569288
      24723.20519397
      29510.55512198
      6745.35604292
      18737.60501239
      4090.85438182
      16559.42194331
      30128.85740270
      23410.57676657
      7235.24508254
      18490.48950196
      13947.67666717
      744.88222636
      26951.45267405
      12295.27703059
      2442.80830525
      21605.40987217
      4361.78270670
      9337.70961427
      7154.78140172
      8127.46629476
      9970.83080269
      2854.78980261
      6504.78538599
      18241.00905230
      -273.57460544
      10603.51371127
      8915.61399717
      -1385.50514722
      9861.30494533
      7040.74706090
      3115.03012599
      7228.66973106
      7449.10539589
      1729.40730618
      6982.71023322
      7598.56789049
      3086.09465883
      4548.42512246
      4267.66068517
      650.66065990
      2400.06878523
      3674.63992048
      5122.60054505
      3329.47181839
      1624.92650687
      1004.73919697
      1402.98616896
      463.88293101
      1492.54941384
      733.00425795
      -301.40892659
      668.29885763
      -299.69721487
      2832.89670833
      1003.48517611
      771.14051188
      855.78495926
      631.03612086
      714.48614456
      749.43998596
      18.21836179
      524.79174195
      144.10677236
      -156.62184485
      5122.83336491
      7522.97126893
      21946.83416403
      13634.50959992
      1967.01902464
      16421.06042711
      4575.74010197
      18672.62869568
      13763.00114143
      20784.61340600
      4877.02585754
      21985.64042778
      11010.16037999
      8067.78213523
      9912.03919583
      7885.97376495
      12288.47849704
      6581.09927419
      6093.39278197
      17950.56646079
      8821.99132164
      6749.04888641
      7577.73437779
      5274.65502574
      13473.88108411
      9400.02852728
      3247.19200975
      7958.86352966
      10440.32469892
      1024.10974586
      6028.18080127
      9307.05450464
      -232.42615544
      9227.95520433
      6581.20124888
      1689.11860148
      11205.45142584
      5654.12491851
      3395.77482079
      5214.20937791
      5159.67871989
      4094.62389958
      6943.37220036
      3648.04496477
      1659.35901031
      5534.39672849
      2769.99979735
      487.25732467
      3529.72519037
      2453.11732765
      1136.17494034
      2726.42403423
      1796.06140724
      2156.00917862
      2785.24211634
      845.32991042
      2014.21910683
      1297.64437906
      638.39255270
      1406.59517248
      1230.92541073
      461.73995719
      903.91406518
      -368.81330081
      -239.89775524
      347.48864495
      34933.91874166
      16694.66462697
      18683.42173500
      -43803.10550008
      9385.34607896
      8261.94144191
      3847.87734542
      14524.42161193
      22636.59902334
      10624.22464638
      2658.80061043
      26974.90633927
      13698.81262929
      5481.99288894
      8111.76946785
      11174.75930059
      16414.04317469
      7681.93906708
      9565.31952664
      12682.29377498
      5649.00757439
      9731.23771374
      8868.77352952
      10196.77232872
      4678.51284497
      8496.11923187
      6695.57875207
      5447.81193671
      6516.02921550
      7216.26771092
      5814.29664173
      5127.06965182
      4725.10490660
      5849.30874057
      5810.06807141
      2278.12808716
      7829.51340846
      8210.34616195
      3457.19439618
      4641.78028620
      8735.55038881
      4495.77789823
      3793.04330623
      5404.61537181
      2480.67322337
      4007.66959953
      4388.81494263
      1347.93532689
      4057.97039487
      3084.13739708
      1331.57747038
      3593.95832249
      2163.56278742
      2596.43769011
      2806.35106364
      123.58935802
      1673.71441616
      1069.16775069
      304.51172614
      1429.44556182
      386.16435661
      707.67261696
      847.56988886
      -444.57134454
      -458.79617162
      360.23478578
      -613.46431675
      32097.84713912
      17018.87837943
      1858.03598907
      8540.26478341
      8974.18945678
      9544.17545151
      7480.23608388
      17518.37964478
      20865.98561113
      284.93913923
      16884.20214707
      10204.94375742
      9487.18517292
      6031.76487220
      18025.71802892
      16801.78385655
      4197.45523262
      6847.57578061
      12655.39809652
      2106.65746816
      9048.31416787
      9161.45581981
      -608.86116690
      6444.58505378
      14365.91492518
      5590.74006291
      7099.13667454
      11440.21713697
      6609.75018147
      3256.85924988
      8740.39868050
      7462.52795790
      5552.63771151
      8656.34213269
      6304.66998000
      4108.43989965
      7766.97207157
      5912.35968251
      3040.55640723
      6692.94668918
      6220.76841461
      4356.16285837
      4055.36373997
      2712.91559102
      4064.47756883
      4087.47896983
      417.17718894
      3457.56237743
      3836.55210954
      529.31592676
      3336.18175779
      1789.72228423
      141.59806220
      1963.37069554
      761.38157011
      1436.79148902
      1697.31658641
      -285.34169283
      328.63149922
      -124.64083387
      -264.68389794
      -216.54135823
      -131.82879863
      -494.59839138
      -80.61015572
      6619.40311935
      27673.68729149
      13984.06866575
      20060.69431496
      19674.32915110
      5519.24654115
      9403.73982120
      11677.29324046
      20335.01173659
      16892.22120322
      10978.04037770
      23932.21735784
      11132.74349565
      1678.69246204
      12362.13891196
      15518.93627587
      9802.51759208
      13692.49921871
      169.05028749
      18872.80052925
      15130.94395998
      43.40039856
      7302.44391722
      14778.02506654
      8407.28191836
      8037.08586762
      13474.48372803
      4223.81734789
      10634.65301381
      10050.40344529
      5198.16837632
      8993.00713596
      8111.52080629
      2098.26149826
      8700.61991796
      7098.72184889
      3982.21427687
      7590.29194676
      5123.57843988
      2351.44007184
      6274.81863634
      2409.76640121
      2227.17157369
      5220.91796643
      -0.90979547
      4031.10800783
      4049.76832663
      -675.20256073
      4419.27823823
      3521.29999408
      203.83594681
      3195.89785063
      1983.98197839
      1840.02763754
      1662.40806787
      366.45451780
      2322.53294696
      1804.06908935
      719.98003485
      1666.10564931
      538.68552081
      1040.53048110
      853.92032658
      -171.05914572
      -236.68040746
      483.27536713
      10450.01463312
      14403.79265723
      11941.22011781
      16864.64394567
      17427.86069304
      7194.69629419
      14871.79483346
      22326.50792561
      21089.47905936
      16362.52662740
      9868.10694033
      25896.66062604
      11190.89525113
      6709.91076634
      22077.78845943
      15258.24237546
      14024.54883851
      15457.63293378
      2598.16598625
      8064.37490770
      11382.84311159
      2258.92344516
      14141.01476063
      11881.11469237
      1473.35369506
      11681.89717001
      7110.17360228
      5508.69107615
      9589.11541426
      7936.57518383
      3360.32917697
      8805.81751827
      9082.20349492
      2443.33749737
      8981.13103055
      7413.89186314
      2897.35087470
      6353.99740964
      7356.75464569
      1715.52912443
      8852.22756760
      7207.09318793
      -458.73421465
      5243.66403426
      5106.82174318
      378.58275271
      575.44326167
      2592.82257666
      1404.46484945
      1213.36094382
      1930.79689420
      1525.97374574
      411.61187251
      844.25366798
      1029.33096475
      1694.20498107
      589.11971053
      1279.96747602
      931.30567018
      1433.14303160
      1168.94011774
      1030.32497519
      580.41357841
      53.13339940
      -82.21327288
      123.43296194
      12213.59660216
      28914.43847090
      9997.82884474
      15777.11175011
      13779.78327140
      -4152.50242228
      13741.64918918
      19054.61227653
      21710.48052986
      14576.89522383
      5299.68616759
      23032.21986007
      12381.93182804
      -337.75037879
      14075.86717595
      16919.94924834
      10574.30063757
      13294.11380927
      6883.89098450
      16480.85901602
      14450.34684415
      8080.07845132
      7360.79921504
      11127.35181825
      9466.03531754
      9217.02155725
      11755.12418745
      5353.25590107
      7951.39779318
      8770.08948705
      3528.82243956
      7150.77214419
      7593.65230451
      932.57503299
      6796.69306988
      6379.23766779
      3619.47374032
      6203.27223030
      6514.75172653
      2319.88622769
      6082.02170699
      4469.79027534
      3062.46854621
      3485.72861984
      2805.19242408
      5046.90161741
      3571.79896431
      1360.04269884
      4411.88681810
      3054.78265800
      903.72030425
      3031.85275793
      2006.32228230
      1778.24010736
      2051.25406761
      1192.26728093
      2286.42706862
      2137.66911821
      326.14585803
      1304.84172846
      452.80556403
      161.02100711
      354.42463091
      229.44494488
      -173.42478886
      160.72284044
      5851.99794848
      1327.90830162
      -991.66384959
      18571.65004664
      22121.85692364
      421.57633296
      17309.94780623
      14651.61993220
      15492.92364383
      12786.75759016
      6196.37519052
      13160.09929014
      15456.99875399
      3114.42601175
      8287.81451453
      17188.11183707
      12436.11777571
      5589.44208511
      8900.10724728
      13856.77859245
      9783.33114979
      8096.13411853
      12653.72301318
      14687.47105394
      1247.29007598
      10653.31654894
      12878.76703457
      1296.79551563
      10448.32380505
      8557.14191977
      2066.99429723
      11443.48744434
      6846.27799475
      994.77792554
      7810.27479463
      5627.06593319
      2185.91309407
      -516.03997696
      4920.50729917
      4561.65920420
      3438.45209233
      1961.86649268
      1523.84607521
      3419.45517397
      1603.95821646
      3497.92982313
      4547.70802575
      1960.35997911
      3883.10852054
      3850.79758248
      933.47628412
      2678.74615184
      2287.59376220
      1214.10188287
      2236.01536206
      732.89683141
      2406.44471760
      2148.53925046
      -48.35688284
      1737.11705354
      814.60024146
      333.72034126
      366.34549475
      84.32574758
      -271.26959486
      150.24669922
      7458.47268199
      17237.86432131
      12780.56179293
      5684.61679364
      16675.23208697
      10626.03983081
      10145.86950578
      5362.98600293
      17724.17490749
      15818.07179662
      4181.12715741
      13511.72385820
      10257.04375771
      3848.06807124
      11624.41656129
      4676.65135557
      8380.63624689
      11237.98095757
      9358.16970568
      7329.56618594
      7009.48302937
      7986.18790847
      6686.54458344
      12510.15020051
      1054.35571303
      7876.25377215
      12789.69932673
      88.08723650
      9162.56839246
      10314.00889602
      -131.94566787
      7300.79394266
      6947.60333317
      1762.42005005
      6905.13153554
      4754.26357732
      1107.40291476
      8301.37847769
      5296.42792751
      2117.11726389
      7119.09919875
      5463.33561508
      3718.96521251
      7260.32908964
      4451.44221931
      1502.11688428
      4357.72070056
      2836.26931324
      2823.02175944
      2959.22536176
      -48.14053083
      1860.87688576
      1817.35455466
      -197.91802614
      2568.49067983
      1946.31583369
      -669.85706669
      365.69973482
      181.42356926
      -38.62412271
      176.18041647
      -117.87773324
      46.30655507
      -157.00971666
      -281.92724702
      46.92634257
      39183.44492273
      11606.52057247
      8540.90640698
      27349.00887370
      15173.19245252
      5246.18210316
      7673.71898613
      11399.52786003
      15751.96994634
      23761.71048155
      8524.80791110
      16427.17961363
      12065.96359053
      4597.64831110
      2414.85607482
      11860.93725166
      3370.34234634
      12765.36725939
      3755.33957483
      9914.69983329
      10665.32757495
      5127.47845206
      2241.85035918
      9560.58700089
      999.54613175
      10261.03687732
      5855.42576999
      1913.26090052
      9789.03117469
      2587.75615061
      4891.39810099
      2829.26364936
      4026.28556427
      4340.78497761
      3499.98944962
      2689.53814184
      4850.32786346
      4850.37131054
      8341.85222838
      1765.93262073
      4971.12481415
      5643.56011625
      1000.16681681
      4114.81444231
      1530.14495168
      2364.66740409
      2816.95207088
      567.00404960
      3767.77633324
      3129.31145835
      -1086.92203405
      2443.19307686
      1369.38178318
      947.59902242
      1449.68594616
      1652.18379467
      2365.43458248
      1365.09299405
      348.43219111
      1056.95674790
      910.99163131
      408.09257202
      632.49044122
      348.02096870
      -438.59262075
      143.79333005
      22521.00307913
      16042.81797327
      6676.04227249
      14500.22713994
      19701.28843906
      11880.81922048
      10093.96455144
      9110.14242492
      17710.50246021
      18014.13017641
      -3404.92031418
      22939.55988245
      23580.27829528
      5697.92089409
      15203.67362922
      11574.94319539
      10083.62570808
      13218.04951426
      5338.53936840
      12078.16271568
      11394.93716373
      4047.27460545
      13009.97301496
      11554.76284939
      1190.89225246
      12086.05692231
      4360.53753450
      3410.21903667
      9655.56308459
      8451.15679483
      4659.86375325
      5007.47975337
      5746.61223436
      2471.82452232
      5989.19328904
      7396.04909275
      2384.35437074
      5133.59808849
      7135.85857733
      3186.87778787
      3259.81730304
      3217.07098246
      2975.94701953
      4934.91751081
      4485.57069022
      934.89287104
      1920.47725924
      2633.18914182
      265.51909074
      1157.11769817
      1280.53248546
      474.05479886
      1576.80785118
      1174.13831229
      735.08465798
      655.94076780
      1800.50598257
      1939.33449015
      242.75490140
      1030.48277645
      799.89515826
      271.96418957
      675.91948636
      368.63279470
      -173.27931073
      202.36874957
      19431.65282938
      15669.15618165
      8502.19240784
      10439.03900898
      18663.86441462
      18124.28666532
      9839.31306878
      4353.79860281
      13988.74618756
      15192.32893564
      3194.71187397
      3489.45009157
      18336.75649720
      16619.28269245
      10729.42503721
      7062.03293089
      16392.21977384
      4843.48178271
      9182.94467937
      13816.21916183
      8138.85731034
      8355.37007494
      9487.93315816
      10788.46541870
      2756.26409229
      10845.97197151
      7180.30631314
      5837.87285392
      8512.83764738
      6143.23979066
      6555.48499950
      5533.52354328
      6404.62240558
      706.39271592
      5262.86220797
      9015.84984810
      391.56113896
      5976.25493050
      4997.51905196
      2341.51402722
      4446.71858012
      2977.42987914
      1830.98024531
      4004.68417581
      2630.19244412
      1993.00148206
      4212.92480448
      2685.72881496
      3786.99444406
      3135.62299231
      430.99056199
      2611.80053740
      2438.78772966
      780.11809780
      2180.77467096
      1378.06662877
      23.39905067
      1615.24529245
      224.88857014
      705.73362936
      939.58255371
      -405.25986651
      583.37755568
      585.80106470
      -382.49045353
      368.61204525
      10194.31668921
      10445.00624175
      12658.36021747
      15716.40486480
      16330.43048925
      19398.74071854
      14635.03034309
      9492.95819605
      15391.85609510
      15834.48576711
      8214.50934238
      13317.37441066
      17694.15663414
      20358.74012277
      11603.35611965
      10363.06505027
      16840.04092985
      10979.66447401
      12231.22583491
      9858.25105299
      8873.48239249
      5053.24068588
      9262.97124731
      10071.07733180
      3717.51226069
      4171.51132962
      14196.85544553
      3068.38546615
      6124.05091655
      10174.14067203
      3087.86643925
      6739.18045777
      3380.88089720
      5944.40858453
      10642.86087993
      2939.20840473
      3337.92412230
      7040.69537829
      3479.52074357
      1253.25147467
      3083.70516472
      2726.15032214
      4669.55919775
      1940.71031140
      1878.54436774
      2327.07817415
      4520.13201428
      1675.09059935
      2399.61737509
      3256.58818442
      823.20391674
      2609.95022029
      1612.39167816
      561.52998644
      2047.72530911
      704.88855738
      760.67296658
      1144.05152770
      -54.40224885
      1517.35793439
      790.38215072
      25.86417397
      510.25352131
      738.51537634
      45.49594712
      181.15923051
      15722.60309271
      11493.77008548
      3706.29708418
      14839.59040942
      16454.34653544
      16016.36293737
      13703.96357435
      10626.13937284
      20979.67760209
      16033.47503155
      6148.32401444
      12789.49969430
      11440.50054953
      13302.28834248
      10170.93619226
      8247.81039544
      7812.58947189
      10823.63988393
      9303.47675812
      8510.47366472
      1941.42975592
      7495.44167590
      14875.03238024
      6950.98055913
      8751.92945067
      6505.23202260
      10770.05660040
      11764.32847410
      1506.90231226
      4973.96005182
      4673.63650453
      7014.94586113
      5347.68650446
      2483.26704917
      9048.79743952
      8228.73594012
      -670.56637051
      4597.62636759
      5729.99396732
      460.02126593
      7551.98189621
      2868.32401247
      652.47521584
      7796.14866405
      3658.51508412
      2928.51255132
      4151.92056218
      3044.99455481
      588.20547651
      2336.89326047
      1795.92117416
      1220.31474232
      1204.61191607
      322.19365576
      449.88386744
      815.38194202
      -164.14131305
      577.78416816
      451.74597117
      -301.91043801
      26.72806012
      394.39749228
      189.98715046
      -95.57906453
      -11.70368752
      299.22067977
      20051.55203228
      14789.33515471
      6867.21347461
      18452.47347340
      11510.48321800
      6109.22935381
      15778.03729962
      19820.43931072
      15633.01641403
      14098.57541655
      1708.48601810
      16151.92109613
      19284.94172385
      11311.19308219
      9583.18588345
      12269.95313540
      11808.31844988
      7883.16481597
      8308.43282284
      7582.17897003
      11587.80171518
      4094.13658131
      9434.66592342
      10784.67516210
      936.87172032
      8630.28450231
      8326.93878888
      4182.47901950
      8367.40534976
      9302.40799381
      6717.08246178
      3883.97894289
      10960.61908858
      4118.07674177
      -167.50723433
      6063.25732744
      8562.57197573
      244.90601640
      1978.50925418
      2503.31695486
      2711.54143036
      5423.01627400
      1290.21055929
      1706.44937188
      1806.36217715
      1429.96063799
      2860.14972198
      413.08205328
      225.64780874
      2671.64875330
      749.30612511
      2239.97212603
      539.33680011
      549.00440665
      1598.52040366
      889.83875988
      853.00893926
      1426.23242590
      1173.67640645
      1085.86165140
      1193.74625774
      375.67022619
      477.57336992
      677.61826535
      -486.77243668
      404.76737140
      13754.61317258
      16823.35866773
      8477.16561525
      12220.43328914
      17944.08846109
      4099.87528765
      20691.86788956
      12722.81950529
      19917.12933987
      17141.71761193
      13050.15027041
      13834.36331736
      7347.97005028
      12048.81708254
      18227.91726388
      11095.24743539
      13099.19231020
      10534.45791405
      3424.45859380
      10769.26985692
      11168.18473305
      4680.85045959
      6864.19576204
      11773.23895258
      10376.84045964
      8166.43305965
      2816.00442472
      5303.14161798
      2575.70004690
      4945.50141997
      9050.65131858
      1225.19782793
      4796.53406668
      4551.49321161
      4972.70843229
      6572.89767749
      3291.24990616
      1341.42974052
      6165.12964108
      6066.90252847
      2584.60213222
      3017.01490845
      2351.59724773
      4679.24740340
      3293.14808933
      1372.98359845
      3205.76773409
      3700.27745107
      -44.78678088
      1950.84780854
      1368.98448757
      -343.51197970
      1319.42365018
      1382.87025018
      943.54741739
      1157.72721456
      1024.09704166
      1789.30459353
      867.48027158
      1485.79233542
      1070.85349775
      -104.16610713
      704.48298244
      481.88791705
      58.64611251
      374.72269218
      16571.84728374
      12884.33718262
      1112.92783610
      8347.77517539
      11044.77979253
      12723.07856863
      16772.45048630
      3506.98362202
      10888.47195594
      15307.24708293
      13271.52854630
      10552.72225670
      3662.27263326
      14128.80772904
      10466.85512808
      10879.64440780
      11402.42104559
      16297.18146731
      1594.35558597
      13086.67048057
      8320.67671132
      6336.25964811
      4512.42373430
      11116.77831196
      9701.41031342
      7370.64155781
      9848.63950215
      8579.55731463
      3819.16633830
      7769.95531422
      6560.04229363
      1544.39456507
      5697.93396715
      6030.27452343
      127.79338052
      3708.34733653
      737.29545422
      1523.98311393
      4358.81437328
      2676.34486427
      3143.01929455
      3432.36964160
      -757.91181934
      3002.70422036
      3008.73916880
      697.82060530
      3488.67209960
      2017.89084911
      788.77253483
      2762.12244159
      1554.45194542
      948.05831078
      1724.34259610
      671.16206301
      1118.99653164
      1614.62788104
      -267.31499111
      1635.84469880
      1031.48631504
      206.16121004
      1236.48326708
      17.06734331
      202.06820303
      -404.45707586
      -33.68343038
      -182.91969249
      27959.01413746
      9802.56220029
      6219.37328731
      13520.94494903
      14573.84151924
      13593.09350307
      13520.97091163
      4022.86567650
      17046.53574296
      17400.28289289
      10560.03369725
      2586.91968959
      7722.07315441
      15793.50787711
      9161.63477991
      208.18230040
      13973.82080318
      14746.16090183
      4521.13403957
      7874.70557782
      11112.21261309
      4044.11393393
      7337.96760167
      8970.70768998
      15416.31326144
      3257.14045455
      6807.28927979
      8331.43294209
      3987.59440082
      5413.13163138
      5447.44725004
      -885.61431127
      7605.31441822
      4104.65866428
      1032.84457394
      6002.15135537
      5609.56735076
      1716.93267746
      6601.39255759
      4721.03014853
      -555.88017393
      3676.23483952
      4069.39259001
      -153.34731897
      1624.93001650
      2592.60694093
      935.84320116
      1793.46003273
      928.50385421
      2052.06878592
      824.54635154
      1145.76161766
      1216.94872192
      171.86051378
      1291.62799428
      1002.37352095
      -35.76492248
      1438.81938555
      345.30619197
      999.21447689
      621.83169669
      520.01922959
      673.61310337
      918.02027122
      -308.65946082
      -21.55295128
      27982.51655872
      16377.87290384
      3109.80565673
      10830.44924566
      11789.63664118
      8750.11140151
      8165.09023933
      6960.82709635
      12657.79941499
      14217.06459625
      13755.00586355
      5350.14000438
      8622.90924016
      5986.71941020
      1244.59991905
      8168.04792303
      11653.56718311
      11438.03091951
      4770.06408426
      6211.46817565
      8286.95536351
      8531.19410784
      4927.49918559
      7321.92727746
      7780.19726338