<?xml version="1.0"?>
<VTKFile type= "UnstructuredGrid"  version= "0.1"  byte_order= "BigEndian">
<UnstructuredGrid>
<Piece NumberOfPoints="5123" NumberOfCells="5123">
<PointData Scalars="Pressure" Vectors="Velocity">
<DataArray type="Float32" Name="Pressures" format="ascii">
      -895.79152131
      3116.73581958
      2632.43449342
      -35561.77368429
      -25076.91863939
      8407.47414694
      -20482.92742986
      1041.37012951
      457.32793096
      -37979.07088609
      1734.23563442
      -24929.46055353
      284.16543415
      3721.95692748
      -24289.64383439
      140.84455127
      -28172.76905675
      45.24876064
      -546.38259582
      -19896.22698744
      -248.78759608
      -616.58853842
      -479.28236826
      1171.65838600
      730.86049375
      -609.72799799
      507.66568229
      -82.24677086
      2136.73135707
      10.51605141
      -11.80880322
      -766.26556126
      621.14918663
      1507.73855049
      346.35845727
      398.19582975
      -491.05383310
      -339.33696926
      -70.19732443
      -399.70247655
      197.84829460
      -1695.81924487
      -271.16087366
      1393.90036766
      112.23740681
      -557.35463883
      9.44343551
      989.94813656
      -247.65846784
      -485.43624848
      -296.95084136
      -122.08116126
      82.58342930
      -182.13485758
      143.46890081
      598.30523451
      -962.15200575
      1425.14498504
      3632.42571311
      1274.47858245
      366.10759335
      256.16629654
      418.57590277
      -545.12902094
      703.33434687
      -331.73283982
      2059.15800225
      9688.22818881
      2724.72021764
      875.51129275
      5203.53801400
      2593.35497655
      1469.40436833
      554.45155404
      157.67282579
      1890.15851179
      2693.80575178
      939.60579035
      205.80386147
      811.22957577
      1700.52299708
      -1783.54056074
      4240.86025580
      261.75393532
      488.55550764
      -1320.68094515
      3095.94824731
      1378.06546596
      3027.53854995
      -842.34215791
      -1889.76817402
      -237.68345732
      1236.65477405
      -10324.92857791
      5205.40204600
      1230.01157493
      2163.89230404
      -76.91273518
      1437.59958411
      1891.83883017
      2165.29423217
      1507.48322036
      -1332.76091568
      1361.22606243
      685.20351269
      103.41636414
      537.79483762
      -959.21129449
      2020.84549700
      -229.09710507
      624.95132081
      -1441.00576849
      905.64681574
      72.55052259
      -750.18520259
      -449.45999308
      45.83070539
      636.70797192
      -134.36726913
      -811.07699623
      740.80667309
      -214.41269990
      2729.02706513
      -3622.05172647
      -925.35447537
      761.95386577
      343.70157144
      -196.39618601
      -545.59286307
      1164.30631938
      536.57044285
      418.39934261
      3923.20885581
      672.33466975
      2260.71970213
      3123.12044753
      2231.10223124
      4954.70946658
      802.79114017
      3503.29741071
      4268.68889418
      2415.17831033
      -1461.59960629
      5019.98272989
      2629.18486777
      1228.03730314
      7890.69303694
      -194.20344828
      3936.82619787
      1692.90894032
      2853.37949027
      2399.20357318
      2203.57732193
      4415.49057946
      -13092.55276986
      1823.47485099
      -1133.37064834
      2112.08193959
      7774.89065241
      4811.75294774
      -373.96784538
      -1897.08684406
      -1595.39621702
      7012.74286322
      4318.14405773
      2744.61899363
      650.39676250
      3200.34771576
      -876.30445557
      1791.73076486
      1819.60882902
      797.31283010
      1427.01700046
      -685.28611163
      1253.29366339
      -1355.54043339
      154.33035908
      52.12654029
      1346.73195054
      4062.07619779
      -794.11310724
      -91.48791062
      29.02293156
      138.20360216
      -3683.32188259
      448.19019010
      767.11793604
      2005.36577219
      -3148.45672213
      458.28812154
      -959.79653805
      87.58248638
      -1634.18003415
      -836.55869195
      -763.95190051
      455.31024847
      -261.47731692
      -917.59655149
      2473.83301514
      3183.08225001
      4341.54535640
      4771.29755587
      3268.49751672
      1438.36369327
      4097.62909374
      5104.50078748
      1851.67421406
      1760.49897310
      -772.66587555
      2648.68072412
      3631.96616569
      504.69082497
      6624.71258174
      5736.36328925
      6630.47577128
      -405.08010888
      1530.61503575
      9302.42280755
      3610.57267683
      7588.23519914
      3059.77550384
      -1795.74812848
      3319.34875425
      50.79710066
      2061.66159312
      1360.44091750
      1620.47217727
      2481.79138547
      3334.36158796
      -1016.88998780
      -2346.74665425
      -3919.63403328
      2032.14445885
      592.60477049
      1352.53191537
      4464.14069188
      -138.49474615
      -68.43469512
      -575.98777471
      382.88285115
      1838.38772731
      183.27481952
      5693.38834478
      528.37941592
      75.13636957
      -93.28772027
      1081.63818194
      -3174.62139001
      -1107.01890979
      524.63331414
      -94.11835494
      1429.36050644
      2262.24392502
      1931.98204405
      399.19376283
      552.53608769
      -473.31062040
      1788.16260137
      -256.27764514
      -15.47636004
      722.40712560
      645.27519323
      -950.99620690
      -116.70052019
      10233.71509398
      603.96816184
      6583.11273179
      14118.62363296
      2555.79234492
      7219.75142522
      2508.13132568
      -1376.25832974
      3371.16895204
      -2215.84359469
      3055.37322543
      516.17247648
      -1552.55842194
      382.67903268
      4688.15603013
      -526.12557563
      1114.85419658
      2271.43351438
      2876.34175523
      2809.25371003
      3979.49923251
      3884.88689962
      3760.23409140
      3569.77764625
      1357.36549087
      1306.36845523
      2318.10648041
      1338.40635582
      3558.66161315
      3027.39990504
      2176.67309789
      -998.29578274
      396.00667083
      1136.14588079
      2199.25283614
      3619.51089436
      2922.46086551
      665.82058457
      935.09735834
      5439.25148045
      1900.47372864
      2231.57140356
      1770.28858143
      4635.23462148
      2191.13918937
      2443.61519678
      2459.16692327
      -822.12176943
      336.86534805
      -2936.77062647
      -1670.41815643
      -93.03176585
      287.33939363
      992.78580900
      2287.65329063
      262.29022629
      3198.31332598
      2823.64698465
      -130.81353984
      1920.36569450
      1323.33674793
      -1178.04276663
      -270.51402287
      422.54438853
      -53.59879115
      -1572.53554945
      -17305.06999468
      3939.38304474
      7014.66337161
      6458.89492612
      3768.72498825
      3286.20862060
      111.84177688
      3908.41341796
      4532.98874195
      1694.28738198
      7151.12542837
      4962.24865111
      3630.82115361
      2805.88464314
      8588.39397750
      2244.33625797
      6152.25713072
      1659.43452729
      754.89977452
      66.34361844
      1767.85054077
      -3585.05544653
      -4111.84739857
      4555.76153324
      3042.85012359
      -6499.88501291
      8384.94686762
      -4096.48011426
      1424.34211073
      9363.08559900
      2028.61290731
      2021.88922450
      1156.89286986
      7329.66215944
      -1528.00602879
      7770.26202332
      3391.78218488
      -3580.97867279
      12265.13644263
      2093.98019151
      1781.84815276
      -3777.29831665
      5378.37165002
      -1914.81222233
      4426.39210528
      1104.79925843
      4106.24763364
      3889.55321355
      3749.46115977
      1522.14739018
      2110.80023452
      360.72871801
      1050.84879214
      2368.88398465
      -2638.65612790
      499.06651478
      829.83056873
      1353.60022426
      2819.17721833
      2461.83689665
      3343.30117442
      -1752.40499829
      -452.97888434
      24.28394340
      269.78258875
      189.66936822
      -28807.02041058
      3933.12964475
      4767.50621509
      5003.84001538
      8631.65026758
      2749.37902435
      8642.57818945
      1034.63496569
      11189.30739518
      4125.71905593
      4455.80874810
      3826.39721009
      3885.06785892
      266.24977303
      4001.99270957
      1413.45683451
      9154.54886613
      -457.54629057
      8939.93477486
      3168.05696626
      1575.71826703
      7974.48067180
      -443.35465156
      8404.43537703
      -761.38716199
      -309.12704681
      10568.79508432
      -2772.52183230
      -1049.14476081
      3936.11659645
      9570.06900329
      2500.18803847
      2640.56158773
      736.67585720
      -594.00492558
      1056.22951804
      -929.93179589
      -1361.00650172
      8171.95413354
      -466.78609528
      1503.20701554
      5391.94828443
      2858.40743542
      3046.35128289
      -2691.24544356
      2212.85088992
      2719.99222733
      3149.02406081
      3000.87292838
      4217.85523887
      1271.96282656
      1475.04294150
      3093.55068718
      -453.57797047
      -1153.63213648
      1244.83002036
      854.45674312
      1639.73815746
      1971.68807742
      1364.00568915
      977.15148889
      -1092.92633412
      -4110.02976926
      -1234.91890384
      -375.74981262
      908.92264669
      15785.47503303
      2972.28164248
      2910.60187409
      1712.13350233
      2469.33837715
      2742.70241120
      6209.37274657
      1706.08543336
      8197.65025986
      2747.48302040
      4679.34227195
      4858.67830128
      -120.82284443
      5150.90070978
      3063.78472132
      1114.53749546
      9940.69946882
      -1286.26974098
      5232.49542224
      2997.32728029
      1326.68649109
      4985.86687176
      4133.02798582
      659.22665536
      8990.33085601
      1466.54203052
      1566.02685932
      3390.58505609
      3745.24430653
      2030.62391955
      4260.74704398
      3812.98292388
      2174.66188447
      5708.79641826
      3819.51305605
      2047.84342515
      -84.06768931
      1150.82780070
      -1072.80997568
      5204.91928996
      962.76280578
      -1987.86996132
      -904.55249853
      1481.28194571
      1881.11193158
      764.44976113
      -1194.12979504
      595.13171078
      3305.83933901
      903.24170677
      1540.85007110
      2707.55903772
      1867.48077164
      858.60927070
      193.33740374
      1200.48031166
      1063.69221254
      4991.46424898
      699.57431929
      2957.62331139
      2437.97044870
      1318.70003915
      -2144.09016347
      -1160.24240453
      -1117.62048914
      -854.20494744
      -18063.76538625
      2615.96705858
      1583.73269437
      4991.56608747
      2934.63447095
      4355.46319305
      7106.10700545
      171.98151748
      3412.95701522
      3919.27737592
      5018.22493191
      1725.10897325
      5603.32440894
      2662.57349574
      4064.88832040
      4213.73585705
      2143.13571512
      1565.75017174
      271.88114104
      4529.61174822
      716.72013194
      513.93353430
      2829.41723660
      3872.34196361
      36.10286186
      1022.50350970
      4329.70568973
      395.24896218
      2117.04585295
      1713.01987072
      6026.96085144
      2260.61528052
      3003.85841124
      3107.53520641
      5454.66370390
      1571.99518686
      2580.06590485
      4630.17870565
      -3377.00815311
      3943.40538827
      3982.20246618
      3207.26093316
      5121.26295162
      2328.54066599
      -3337.53826698
      1676.86547034
      511.25605653
      1405.32628063
      1933.85385563
      1929.56430986
      4958.88234790
      2270.91984646
      509.03931161
      3932.60759352
      311.12453129
      2462.77553485
      922.44164128
      1695.91601146
      3500.74497937
      2769.76123776
      -132.44592993
      171.43729161
      -1891.93654059
      -5.35337771
      733.96064112
      522.16116778
      -35532.71009678
      2551.40786666
      5075.85703976
      8202.81804436
      4185.58338390
      5959.48782816
      1687.31709401
      1835.81631648
      1612.33995149
      6337.34613875
      3292.33897390
      209.11959389
      2616.85016182
      3349.11186943
      2962.86691683
      9025.69471399
      140.12912212
      -965.45214398
      842.79653649
      4735.25545122
      1684.82532744
      4668.51125404
      7919.96859635
      8788.23071769
      322.25461211
      756.00264882
      -1188.54975298
      7319.41176811
      4212.27477172
      -9483.75838043
      5239.26478640
      1520.64974575
      2571.79591003
      6682.17624764
      2071.24148260
      4005.37393784
      -953.82514573
      1414.74922546
      -3654.05619274
      295.18871149
      6530.38010487
      -2437.38023854
      2966.97031922
      2293.35945581
      3198.65304948
      2459.71824979
      2297.59079170
      -2925.94563264
      2438.36034262
      829.83031222
      2943.20238288
      594.45321925
      -569.36732877
      320.58023726
      3080.08037908
      1304.09748349
      -409.99686289
      2593.87223567
      2842.15021647
      1470.53171655
      2474.94855222
      4090.68885911
      874.31611702
      -2668.03805833
      356.74296393
      66.65383782
      -32327.05726218
      5476.64122221
      6830.95934457
      2280.53545383
      325.43442307
      2116.99892933
      14.79446601
      5607.94607850
      4224.18584114
      1464.57887895
      3361.69463035
      504.43826072
      -70.63850890
      1063.09711881
      -105.38261917
      1169.50761929
      3406.66665148
      3780.50242105
      2980.12080711
      2483.87837028
      -1926.34853072
      2364.29836802
      3381.73545450
      5616.37529166
      1132.25187522
      790.90355040
      3509.63445808
      5393.19386995
      1669.08177938
      3148.15731367
      3133.51161141
      1231.35140850
      2088.07499716
      5699.82441152
      2771.59738778
      2501.94401554
      4555.74196070
      -830.59055891
      1602.68722009
      5420.04189299
      9402.95631130
      -319.57786980
      -2822.23967991
      3250.00234863
      -881.03909983
      4407.27361427
      150.96855708
      1783.00280042
      6086.44854196
      25.18015394
      -1536.65292730
      -1756.80602731
      -1066.54352393
      1243.38410500
      2341.34100292
      876.96261887
      3488.70748776
      -17.27767019
      -935.69884123
      1649.71701732
      2793.65136516
      2331.11954323
      -1946.57850671
      76.90178923
      167.63810772
      692.82638976
      6598.02636997
      7550.35154730
      7043.27328231
      2173.39600498
      8491.96621234
      5718.75045882
      8713.75437887
      1960.47047059
      1635.58961785
      2494.68165930
      1498.99968709
      -7865.35940826
      8215.61360460
      729.54164161
      3765.61398404
      -50.75695123
      2778.13795544
      -260.87045455
      766.73970297
      1197.95473784
      3573.77499447
      991.92129839
      9307.50883297
      1924.78286117
      -1211.01852568
      5576.21723657
      1110.15165968
      2185.02978832
      -5362.19829044
      -3030.89168372
      2420.13944345
      -3912.10796621
      1270.56999587
      6132.45614106
      6950.13191343
      1220.38369274
      2344.19497280
      664.24090508
      -2411.28717797
      873.80636033
      2463.78162103
      1745.93813028
      915.53571632
      1213.87046733
      -572.10994968
      -2320.11830912
      140.29445126
      758.46873752
      2392.02407125
      547.48407794
      4017.37273761
      1497.48712490
      978.21792645
      -1587.91845450
      450.44213969
      977.07357496
      446.62200852
      -79.59387857
      2349.36150088
      2875.19136975
      1083.00598974
      -389.30623426
      -1359.80810519
      142.63845404
      216.36101453
      151.16787718
      6583.38280830
      12598.44461033
      5607.86615399
      4627.59629008
      14763.11681666
      1709.34332364
      2617.81519820
      1369.24021745
      -539.12211299
      1247.83845564
      1057.43789887
      2256.80821141
      807.64789162
      2136.49953088
      559.50130177
      -302.01375712
      3876.22085066
      -71.51906132
      3627.98154256
      909.33333497
      -2978.53618477
      14877.39331519
      5710.54340143
      -2890.16921928
      1058.20754861
      2061.37434183
      -166.93176386
      3537.93766430
      4502.93156913
      -1024.93944645
      3156.62611431
      1023.89905105
      2999.08784846
      4248.95298081
      6438.67885315
      1037.62382038
      1346.49952780
      2364.01123304
      979.99785886
      2721.22099488
      1370.92182960
      4035.95009487
      2707.09051092
      679.85797528
      627.74296911
      -2412.07277522
      2262.82090314
      1427.98124237
      -167.17301583
      1181.87314812
      1464.97082508
      309.71359733
      357.93173152
      909.86746011
      469.72302346
      2707.67373801
      -4680.45571411
      -583.66515035
      1467.84577984
      1584.44976792
      -208.53455492
      968.71491508
      -2214.48607367
      314.14084122
      744.98954111
      220.66012590
      2558.82429235
      11300.10093484
      7964.41269609
      12358.19578168
      2174.15782309
      3478.18069768
      4416.90253951
      2797.25831039
      1772.48958440
      421.26259599
      3550.10499492
      -280.33377941
      1041.29797596
      -302.35901482
      5506.59069860
      2504.75194558
      1427.91466876
      2672.46861332
      709.36334152
      1623.91273563
      2656.94993771
      2281.82925287
      11664.33634512
      2147.34427290
      621.73268998
      2957.46815952
      2511.15006421
      -510.14282974
      -89.78133411
      -954.58963494
      -4146.14362064
      2173.55133399
      392.36499901
      5137.94306903
      -2368.33315662
      826.11245998
      -378.09764032
      2704.38729420
      -829.31438712
      2093.34182001
      895.53011344
      1090.31615098
      -534.42846071
      -3199.87956158
      -570.52030119
      3009.01672355
      -327.88578346
      122.97162781
      172.03286083
      1456.82076361
      2648.28708043
      -907.50925800
      793.13705518
      297.63389964
      -310.21300919
      -323.40544390
      -313.37321577
      466.48818511
      2087.85926976
      -155.26267318
      -323.32221228
      -2.23587002
      939.36993086
      -445.67849116
      40.30047369
      231.67587910
      13751.86790432
      7331.66491691
      9091.19625193
      1096.01270156
      1555.97217269
      6528.28425844
      7616.89992221
      7734.81321844
      3981.72809978
      359.88354908
      -9017.31848708
      -4318.47696742
      8253.84247047
      3987.36780048
      -757.98049683
      2811.11851643
      2341.23964339
      19235.25609967
      1423.69201287
      -1155.88406667
      629.19103359
      3280.43148820
      177.24604402
      899.27213723
      1642.36773767
      2265.15026230
      1937.68299127
      5134.53780541
      3696.70064341
      4351.00643474
      5312.32787444
      123.57627029
      6579.04909802
      3045.87943465
      -2768.53777149
      4712.63730644
      4546.64495587
      2794.11607312
      -444.09139199
      917.01967338
      1394.92484454
      651.74996716
      437.15892140
      2989.05572713
      -2089.58521715
      383.78783633
      814.92317492
      -132.93732047
      1781.50891710
      -1136.52232910
      589.76022704
      1508.10265230
      242.20347381
      119.63353186
      1665.50406038
      242.34850242
      -89.32763098
      -28.97799108
      683.50051389
      403.72788856
      1512.77120264
      -580.16474284
      -109.55551251
      183.90113986
      -24.49722070
      -19.09160708
      6649.08368411
      8711.69048498
      2999.81519756
      6084.50598416
      2802.67072808
      2825.60688404
      1603.03102935
      4304.92758998
      4688.35288785
      -2178.65090065
      974.06229106
      2220.68869934
      5583.31832218
      4976.74463565
      3186.35541226
      965.55970385
      7877.45616311
      4155.63691932
      -691.52571219
      -311.18937433
      2439.08586519
      -1698.84327103
      -335.77303253
      7272.41623406
      -2819.88231951
      7425.72188847
      9623.05516741
      6548.56602590
      -1760.82348298
      3046.41430889
      1414.63471267
      6383.27807116
      2320.03989176
      14436.37146562
      5293.27926091
      4194.95707854
      1461.28808804
      2566.41194372
      1431.45584330
      -972.77327571
      469.13219165
      2229.12597132
      2663.08422229
      3924.80165541
      2441.47419433
      -1192.23606869
      1624.62115918
      -777.77804500
      619.17733680
      672.80535620
      887.33423832
      1012.28568240
      -902.58825781
      190.59989365
      595.22060659
      776.11553326
      665.58409709
      600.55394123
      2176.57363930
      491.67771541
      -539.52554631
      513.58757321
      752.28704091
      157.91984133
      715.13074106
      662.46993736
      -547.42883015
      5531.00862141
      5899.15440846
      -1354.71724513
      4129.81939177
      1225.47456159
      4919.65964653
      1906.82041324
      4326.39065019
      3428.59390771
      5458.64497898
      3686.42770171
      7737.31069575
      4415.95479697
      3264.89288990
      2717.44759471
      4163.41623132
      4789.31526882
      6899.43683577
      14745.50962523
      6784.27832222
      3454.81116297
      1513.43469078
      5555.28841979
      5824.39895734
      5327.56530341
      6424.40957842
      822.86138561
      2107.34658826
      2985.93061008
      7040.51345916
      16120.12384145
      6681.41896535
      -2826.01012054
      2343.83409413
      -336.28825101
      4553.92077739
      721.59717754
      1226.46213994
      1635.57272336
      3222.14964780
      1464.62036681
      6159.72491847
      1575.00901956
      -3589.96832946
      5200.34198964
      3889.93743087
      73.59426424
      -3220.19689785
      856.56256284
      732.02987326
      220.03895007
      278.72789057
      338.48637956
      -198.48248464
      999.33579853
      55.84096337
      1440.09507818
      1832.57589006
      223.54802927
      -435.71203924
      445.19711554
      298.18771477
      547.83594987
      203.70935012
      154.38582601
      6298.02234095
      517.71359344
      3342.84190018
      8620.84790120
      2264.55685723
      4153.79307576
      2668.63851066
      3545.37430285
      2989.98087745
      2481.00093523
      701.79290679
      2365.18467201
      9220.51450254
      3972.58525688
      11176.77661206
      2483.17702330
      4433.82330531
      2369.33630278
      1723.39511433
      8628.48425797
      -382.45508377
      2824.92847748
      3184.30706893
      3878.77939464
      2287.81718035
      2722.48658325
      4358.50673151
      9594.08020924
      1595.02920626
      2849.34618778
      326.74905022
      1373.66444332
      7445.80317101
      6185.01832593
      3709.75392025
      6917.39100556
      4720.87961394
      1717.42963744
      -5508.19071286
      9811.51979680
      2625.52537810
      4876.97838653
      4826.26319371
      -219.95158297
      5403.49670002
      546.21009266
      -295.62791239
      277.11101105
      143.58880518
      -48.77105085
      -2265.98056592
      1585.19212675
      1724.43343927
      1693.10766089
      35.47269079
      -206.49542241
      1059.67602678
      -1421.74071986
      -713.67966953
      864.05884792
      -8.07652896
      583.89551634
      161.88607056
      -52.28245867
      550.57050240
      853.60271393
      3039.50044395
      25614.22865053
      2787.58765332
      4587.09216432
      5258.20682543
      5314.94760443
      4721.12199626
      -107.23765842
      5252.02976289
      3444.15147002
      5164.47898682
      5155.75348960
      3284.10687375
      9416.62905222
      3149.65716649
      2708.87455185
      1826.96949769
      1901.09175407
      9746.35253298
      143.55087142
      1987.93237403
      1257.21671889
      2079.08543827
      5936.65173373
      6460.35743190
      1813.96451758
      3355.73160535
      4447.67557344
      2624.43643979
      4143.32402891
      6599.98175202
      1470.80991847
      -4462.42690435
      2767.11178136
      5984.01505173
      7721.51985795
      -5026.23644495
      3786.80040854
      143.80517108
      3891.82576881
      4940.43796119
      2194.69832470
      3138.46339090
      -5027.91612863
      -6403.01358725
      1213.55150467
      1801.08030485
      2034.60073580
      -1477.29795315
      -517.16203652
      1254.90336806
      -441.40727320
      1443.74313749
      6.20802866
      2044.08005488
      -324.69601200
      81.49009400
      897.78304872
      -264.61853922
      -856.35635392
      1104.54892563
      -146.39259969
      -163.45543397
      369.08081746
      134.40396892
      636.36602129
      13144.37438554
      1943.56495897
      10711.57689876
      12800.31812923
      2392.83093455
      2280.68602911
      2563.18215028
      6858.69422730
      9904.38373111
      5648.81353651
      3776.36289426
      1780.25913840
      6508.56114627
      2183.11158518
      6758.74479491
      1422.57745539
      1054.99481695
      4709.82156670
      2090.76612224
      1587.48198804
      2950.51785485
      1010.16226165
      6422.55366494
      1043.93830655
      1643.50401285
      -3706.71153520
      5161.94824280
      7741.85240061
      1108.59360088
      1900.71777419
      5602.22514255
      5112.58294043
      2210.13103553
      722.45121909
      9948.00738412
      12098.55702224
      -1326.80233240
      2879.25718490
      -1672.23154967
      1662.78529424
      -1068.77541623
      -1529.49835789
      -3755.06179451
      543.97286296
      -1943.29148899
      -2229.07467979
      502.57481535
      2777.21554986
      -516.30046821
      -112.26981283
      641.21855785
      643.07427757
      476.10376121
      3193.62987821
      1498.29571888
      306.94453565
      782.80294692
      2821.18949066
      250.65440756
      450.69898369
      605.70792975
      -815.90569303
      533.01627242
      704.14366382
      563.56989741
      216.79277188
      -9081.06949144
      3163.10253650
      1618.82662345
      392.29624839
      2707.68947143
      5829.63009539
      5673.50643717
      5123.02294885
      5795.31899758
      6415.21881294
      10939.95847839
      2154.05208073
      11066.16733855
      9078.29290536
      2530.50580942
      3337.82228562
      3412.83232560
      1817.23938919
      3570.69759665
      6899.97469770
      315.99377805
      2795.20818488
      2246.43078725
      9032.12824262
      9664.13684120
      4852.11746099
      -1243.26725929
      3890.09930002
      -3292.05246253
      7824.71229896
      412.90996418
      1236.04758682
      5891.91764693
      149.82233589
      2861.13909950
      6992.69301817
      -623.80196151
      772.19281634
      4761.03432509
      1651.30180410
      2150.23033638
      8924.90760073
      3610.41446882
      1728.16792211
      6001.14891335
      8743.50980405
      3141.52493121
      6081.83951329
      4441.74168747
      5061.59613775
      1553.13178634
      -729.36354234
      -3152.02333145
      -464.85441556
      2210.51890493
      451.93175796
      2012.58831606
      1563.33635841
      1148.23603760
      -727.76057859
      1649.62681611
      1806.35973685
      952.81993853
      1131.22054936
      557.56129245
      -665.20575496
      -19965.59071168
      7571.33901187
      2046.98476666
      3017.50513059
      5328.04516077
      3835.96668558
      3003.63998253
      2176.90342521
      6159.00786939
      4606.90439039
      994.80691164
      5571.53097683
      7036.93029763
      256.67487869
      -932.12758233
      11310.37211653
      437.80781238
      6419.97268297
      8994.78118101
      1962.67776087
      -2134.70626990
      -46.74132154
      -399.98230037
      3769.22288997
      -712.08323625
      4414.46036198
      3132.52766996
      1385.57834244
      1117.88563208
      -2616.99279823
      3088.97449118
      4058.62456566
      -3250.00541355
      5608.71283063
      3629.75636531
      5695.35185215
      -552.37069767
      -940.73790179
      3311.48322999
      -796.63047589
      -48.90157556
      353.24783507
      8162.06251333
      -1312.27062698
      591.22707528
      4397.74212048
      898.06137625
      1417.70776249
      3235.34921922
      982.61518073
      -2200.38477078
      3041.97981703
      9193.05230426
      6237.64171933
      2784.04492966
      4976.28273071
      -3289.37492378
      1049.18797578
      -426.03438414
      -1518.23342915
      815.80821573
      1028.24905893
      1771.79826268
      713.12618725
      95.01732628
      -93.61891627
      -20679.69231914
      1425.22590548
      2275.06677352
      4791.96744466
      3782.60730334
      4220.50850309
      1694.05315629
      695.09313080
      5624.52630939
      4389.48636553
      2920.40093260
      -946.41438854
      2026.47127436
      5287.71915435
      -58.04231064
      -274.03797221
      -1515.85717432
      1822.31756685
      1222.67702609
      4603.45357478
      -1707.55539070
      5370.74380013
      5980.46481330
      -2654.92240855
      -97.93221348
      -126.19952447
      -636.69418892
      -4080.46008885
      987.74980723
      -329.31359672
      9.30973673
      733.39394041
      392.88172376
      1603.97057422
      -1355.94567651
      5889.99541296
      -559.70833514
      -6899.83972645
      10360.58825806
      -1054.00138971
      1474.03114629