<?xml version="1.0"?>
<VTKFile type= "UnstructuredGrid"  version= "0.1"  byte_order= "BigEndian">
<UnstructuredGrid>
<Piece NumberOfPoints="5123" NumberOfCells="5123">
<PointData Scalars="Pressure" Vectors="Velocity">
<DataArray type="Float32" Name="Pressures" format="ascii">
      -279206.25961723
      3911.43271583
      14252.53213616
      -28593.63248971
      -25076.91863939
      46908.25026711
      -31135.53735064
      37073.46186291
      38489.30066675
      -23557.22563288
      34620.77703329
      -37923.35751465
      65268.75701773
      12335.61615078
      -24389.56747908
      42523.72516654
      18046.73526992
      44540.56002374
      21649.51571379
      27445.22682858
      7736.60469764
      33034.74408923
      33804.09714978
      23797.99400091
      29646.68833906
      22276.01798838
      10976.95835843
      23011.05766164
      12507.45458435
      17265.74250771
      33230.06985527
      13016.45028268
      8499.07579525
      21405.86966623
      3231.51800400
      13687.85948202
      18723.82587945
      8147.99467900
      9593.96595736
      16714.29077262
      4451.07204937
      5900.54960001
      10681.32894390
      7682.72287838
      901.15635771
      10902.73107424
      2251.47813199
      -404.56074987
      8516.65933227
      5996.35082109
      -1017.94678702
      7283.36061329
      1525.95137541
      -572.36382528
      4215.83265910
      1832.22284013
      1246.57751013
      4475.91988202
      1910.64252355
      1028.30616921
      231.24139132
      -664.44891565
      491.09284015
      -840.66294368
      126.18537280
      385.57144966
      7965.53200827
      19446.12705799
      32454.74540667
      18844.88536042
      3766.35414246
      10273.15551750
      26813.20075827
      11075.66378776
      11587.68482980
      7425.19191665
      13451.10990237
      11185.33577867
      9224.83414633
      13589.50946163
      11132.05406691
      9679.53758195
      6874.43134696
      12088.80701297
      4403.57645654
      3393.11679236
      3586.02699097
      12955.35858242
      8064.86945519
      9445.42839712
      12541.21469424
      9810.40075605
      4865.03958241
      901.82116702
      4460.32770400
      8358.22309107
      3019.50063261
      7916.64596193
      6834.47666016
      2105.99961747
      3521.63586314
      6881.42560449
      3476.18558918
      7928.64443024
      2445.97876411
      591.92593451
      3093.80901259
      2779.08248509
      478.73887172
      3365.01208916
      6615.91627505
      2098.47081352
      2688.85594231
      -136.85377160
      2973.54520129
      3762.73391879
      1039.31519034
      188.37075157
      1734.10789370
      1227.94916633
      1035.84788077
      2076.46266781
      -767.67811789
      -540.53365612
      1593.34358383
      1039.94631995
      -2982.12320583
      1917.84592413
      783.93707083
      1048.46855849
      -562.56831978
      163.08645335
      4414.40731770
      14745.25203878
      86582.79410563
      31461.90535649
      12670.08585766
      17223.94055978
      9711.90182008
      11324.03020958
      10645.84496745
      5670.34568222
      14521.82209452
      15445.92847212
      12890.11423398
      7540.32236856
      13254.29651317
      22047.78149175
      7881.79350541
      10594.06652759
      21603.48656857
      6152.29529930
      7475.11126383
      10519.75532388
      11816.93383545
      5580.11552098
      10782.22752384
      13534.88507666
      3370.93322597
      8786.31525804
      16259.24988358
      6610.78537240
      5375.93613925
      17262.05697452
      7503.17332101
      3948.64081252
      7374.49503980
      1045.39763525
      2962.40334114
      7252.51301742
      7303.43139739
      1376.80277978
      11517.64329973
      4731.08716819
      1505.86158465
      2490.19858183
      2012.79290476
      2400.21988309
      5517.51747051
      3027.35855296
      548.42480281
      3105.32682351
      2900.31719573
      3815.37816027
      108.58448170
      1500.78284518
      542.07259963
      1869.74446606
      -230.93988335
      1324.06525043
      3037.45953807
      -685.01973691
      1783.07754749
      1826.63513619
      575.38251865
      2251.99236677
      249.47150716
      237.32592251
      -6629.20402876
      8635.40407215
      21950.19583924
      27970.74916912
      28046.35491349
      16614.91475927
      8502.68302109
      5294.37615504
      18141.87524486
      15094.62956627
      14472.59104268
      24958.04636058
      22212.88719662
      10427.65578159
      18523.02624481
      16242.20497511
      15933.86839624
      14898.79030220
      9859.11387892
      17409.84135161
      16882.44662571
      3259.36420669
      9723.08116331
      16563.06428948
      8457.26936968
      18376.06772868
      6178.39183716
      10522.99064746
      9289.55843595
      14201.41701906
      8730.34656668
      7735.06251830
      13035.34611039
      8029.69600295
      7028.20229326
      5750.59369881
      4952.23923238
      11042.14982694
      7719.17184689
      2618.25840499
      4703.48689729
      6413.18961061
      2273.33933959
      4823.70519852
      4473.30000161
      4755.41605384
      5649.41919071
      1581.35084948
      1953.32479481
      3810.48760649
      -2489.06789381
      3201.31179180
      3471.52063447
      1155.66646498
      189.50906591
      2481.67806682
      4093.05826816
      1667.97384365
      1404.82770603
      1208.91606642
      899.32837583
      -575.12967034
      365.33792285
      261.40264689
      -416.08348584
      -64.36423165
      25174.88169431
      20889.73546945
      21693.99462166
      18883.50190003
      49872.04285992
      6843.08603531
      19603.77350880
      17461.50458849
      30607.91635859
      26313.27952453
      -4260.98766625
      35304.83606584
      23766.14049368
      9304.28971708
      10470.16112195
      21080.29167019
      10976.85080490
      13534.81415168
      340.64183833
      18885.55794607
      24558.74987202
      1624.81168121
      11881.84768705
      27981.48538011
      -5660.33007793
      26499.04188113
      9555.09391183
      1284.61718812
      21755.09356903
      14039.24835169
      1337.45105941
      13494.81021074
      9553.85497834
      5867.72376618
      7327.31082651
      6951.05405555
      12969.30052460
      7780.18176742
      7661.84942988
      12005.49783123
      1933.15176971
      2323.87618595
      4836.41174616
      3587.87755190
      5307.98474211
      5508.89679010
      1611.27537613
      4286.81989004
      1006.40055559
      -767.99139500
      4280.91121368
      1540.94517694
      -1770.96108681
      2126.69481882
      311.69992272
      3081.31418949
      1598.32055553
      -401.91424237
      1629.10509884
      -82.98573699
      412.95938290
      410.51749427
      92.53243176
      1094.56566142
      -479.28246547
      -209.27889211
      24569.19260700
      503.21789418
      -19788.33858285
      29978.78177558
      36558.32377659
      8662.96954787
      30623.54351458
      14797.25119620
      -937.39894045
      8864.75497951
      11496.34409512
      21330.84841473
      17779.79279867
      13387.52278565
      9755.32902248
      7744.02525477
      15180.07634953
      7140.05651494
      6806.16381927
      16860.42240238
      23580.74001797
      5904.83836475
      8245.31187827
      22584.44577656
      9852.88246725
      13219.44454283
      12494.33590858
      5410.33962989
      12885.19401256
      10800.07535434
      1699.94817920
      8873.33907132
      7362.93783423
      5356.02026970
      5044.92681615
      6301.85148689
      9540.81853541
      3661.83051339
      7938.84776721
      8510.63162087
      5028.91806099
      5283.22064062
      5751.87415849
      5448.74652930
      6441.95547656
      4340.58787673
      3850.03340777
      4458.36064109
      5167.47090633
      4752.27871674
      1816.79953245
      824.45967735
      4018.88815289
      2202.72065958
      390.06184418
      2188.96948319
      2329.86973108
      1806.46298315
      247.45383252
      1380.10876584
      1421.67369266
      334.84356655
      785.85212670
      259.19578828
      297.87036084
      467.15315089
      32962.83385275
      29690.08452892
      18555.41652233
      8608.81046142
      51625.12991548
      13585.49668124
      11422.11969298
      9095.87384793
      22010.39230846
      22277.17906210
      1063.26469461
      17608.18088507
      32152.40746365
      12629.73490434
      5376.88674363
      12992.21985190
      22898.02019785
      14081.81713993
      12113.07865990
      18491.89330226
      17276.65136857
      3010.82019600
      16819.77299253
      16340.28008287
      -1228.59943981
      12583.61091338
      10011.12762993
      11973.19995766
      10245.99974522
      6354.80424853
      13092.99237184
      7251.97119937
      2075.48092003
      11385.42505559
      8468.57837144
      1475.63117592
      12098.04451304
      4044.32682069
      3757.66313876
      5041.36564591
      4695.55660256
      8788.65605378
      7801.58132899
      5005.85387593
      7679.93014206
      5338.54685504
      2157.33304649
      7870.50546431
      5603.44048018
      3240.78276709
      4933.99365421
      2025.01414337
      1944.29985465
      3372.51709777
      1158.49536570
      2144.08236463
      1637.10923548
      712.12708608
      1582.54769583
      262.00462581
      386.58461722
      -124.04407284
      99.71570636
      26.13068235
      271.11365531
      832.89395352
      790.74908138
      3867.58461887
      20048.17629403
      -21429.50003519
      -129866.85396069
      -160745.98321479
      -111051.39885618
      -15292.63414877
      7751.57016705
      36330.65118028
      1634.70198623
      5541.13602401
      20491.03469851
      18515.08806881
      14690.49996043
      16259.04153799
      16586.87310015
      13582.50921633
      3028.38346973
      17380.21949550
      17127.67714847
      4915.16549144
      17711.32759573
      15534.56602741
      -797.72201212
      7363.54881028
      12984.37261455
      9282.48229293
      7516.77683342
      11597.55415120
      10326.78025415
      5331.22204927
      11543.05808332
      9716.70037561
      2950.15102954
      10956.66062041
      6837.32476397
      2443.72954048
      9050.03763278
      7770.00661155
      3678.58256144
      7302.40527482
      6718.43741196
      3936.27510216
      7457.91548677
      5410.48228211
      2566.48035233
      6068.47883083
      4569.55444091
      2943.13677495
      3968.21760650
      2089.93162890
      2184.28573032
      2286.33970477
      166.02268153
      2496.62329005
      1796.75522898
      -150.05489222
      819.80836216
      572.27137827
      746.72810978
      787.88733181
      198.53585138
      -38.45457802
      -1092.99088432
      73.01995971
      -9849.96888616
      30919.02395269
      10807.73149452
      -5481.33452721
      -73339.44360664
      -105166.97841652
      16484.39107197
      3843.00308203
      41061.47379613
      28506.35509924
      10246.54859423
      22074.80438987
      22753.66117848
      5510.41485091
      21093.94748079
      24274.31074628
      16767.74679531
      11587.52379355
      6007.36337018
      17818.14669547
      13393.12601086
      7683.35193219
      18649.81761893
      13991.66903371
      5697.74085279
      14142.13079602
      5514.97459453
      8069.82623532
      10151.28583683
      4829.22516892
      8449.15830697
      6723.25229539
      12256.13936022
      9291.89424839
      5663.10709836
      9647.14916547
      10234.72623771
      4899.07448136
      8720.74969644
      6832.01873267
      3958.35316303
      6419.28302197
      5354.83391920
      3540.07962046
      5460.19705680
      3733.78304624
      2266.89294822
      4402.10493741
      3411.53566000
      4282.91286517
      2886.14557986
      1138.14669327
      3457.40546744
      2566.04274755
      -536.19887214
      1943.58598663
      1362.38851480
      121.97699384
      952.61899627
      1162.26429977
      1270.25201945
      1036.54768216
      12.13674088
      346.15469179
      -449.97193562
      38.45068405
      23892.59991988
      20654.32639040
      33267.79878174
      15867.90111732
      25146.99407701
      3594.74246648
      20279.42313792
      28350.98017612
      24206.64537448
      19507.54891587
      13183.05849506
      25550.54947448
      18875.65645165
      2633.22117123
      21645.23526057
      13464.60221833
      16308.91115121
      20717.22413143
      5597.26345153
      17864.68478398
      19574.02610175
      2975.46634872
      15123.16525533
      16972.57311346
      -15.71132154
      7496.95535028
      11808.25544849
      6590.53538282
      7335.33785083
      14111.42218178
      13959.86726548
      5086.75738227
      14175.79879025
      10587.09304980
      3699.97819111
      11659.13563210
      8991.99033587
      1237.75228389
      9456.33648799
      8513.39603501
      2606.37045452
      7322.20009942
      7104.41196555
      1840.10233834
      5765.26880552
      7266.97468761
      1153.27104880
      2498.89542268
      2819.63189876
      187.87744608
      2637.99453166
      2175.14016434
      -685.04556520
      2428.15976283
      1215.35359468
      144.40358114
      873.07167926
      243.42247753
      654.36932459
      1193.71578745
      120.92300791
      600.95985581
      568.72468428
      -104.78986154
      -326.64464654
      526.57288170
      -10095.58455103
      46782.13116756
      9446.22385352
      22341.43452879
      27393.41276325
      7464.37869136
      22745.08437298
      18525.68338169
      16170.80003428
      8418.88971979
      2739.93302431
      19066.78331589
      28362.02960983
      7820.76257327
      14601.36831793
      20023.84476581
      17642.80388081
      14991.23526792
      5374.43192929
      14127.36097184
      14240.06639021
      5462.71655167
      13414.05101997
      12743.41337131
      9350.71501579
      12090.51212545
      7057.49372803
      9564.19312132
      10642.47962808
      8632.74726319
      12678.66579573
      7557.39380954
      10678.86450845
      9726.89397797
      3954.33316467
      7994.45430836
      10836.13357491
      1270.52124049
      7934.24464043
      8179.76331143
      1523.54372387
      4980.17264890
      5740.57658654
      1027.05163628
      6107.87794954
      5466.63772944
      2313.04370346
      6087.42554253
      3978.47209479
      2798.19635401
      4333.45517018
      2902.51473153
      3263.90487599
      2650.32956132
      389.27411946
      2472.92681297
      2483.47858904
      1048.67615918
      1495.78322436
      686.20266126
      81.24078877
      1550.02412506
      -110.25807571
      -87.36127458
      -257.87479708
      625.69004880
      25733.27750848
      13936.07998366
      6256.79676178
      17369.63807959
      19908.77111368
      -2488.26063453
      15639.26600267
      12039.28989219
      21084.54921711
      20070.64490620
      2017.92325501
      17881.96274356
      17609.15099337
      9424.31795322
      15912.18651828
      14758.78831914
      10309.53978950
      14584.57602964
      11933.79552350
      16544.28442837
      17981.42668671
      1320.06725186
      7354.32211859
      10759.06377876
      2404.27340972
      9272.73524419
      14339.05079794
      9448.69267955
      8798.52925406
      14754.91246879
      11915.61572727
      4902.93456068
      17212.27963680
      8812.78749511
      4391.54906469
      13478.89409087
      7950.16996553
      1716.90345792
      9105.48463493
      6824.57534467
      4034.39560499
      1185.73672165
      3842.30754186
      4838.41388602
      565.10735492
      4317.76150466
      2706.25314722
      5533.80747004
      5533.87781630
      2279.70544978
      4757.59125602
      3014.13921020
      2614.78604665
      4583.93940743
      1591.42627363
      2300.26137938
      1556.20321491
      519.64473847
      1526.51906030
      992.52174556
      965.79515405
      754.86851221
      -318.00661108
      73.36437948
      440.87003648
      150.78805212
      3967.81073442
      8430.06905108
      14828.05208830
      -732.55798193
      16204.57391669
      13678.39318271
      22374.17721152
      17570.69694929
      16290.99750624
      21887.52134107
      8748.16261299
      14258.42797317
      18974.09043173
      8261.81180735
      8142.89072493
      10370.86363310
      12598.17385455
      11470.62681884
      6847.59254867
      9035.05817024
      6606.81180509
      7082.11562741
      8392.33549012
      15192.48767323
      8674.70610406
      4085.73802388
      7814.81193254
      13949.96177394
      3924.15394921
      10507.22004773
      13783.60580340
      2567.14717356
      9741.09875079
      11738.00965593
      1608.80583708
      6961.44484739
      8176.03784288
      2003.42130263
      7604.33293487
      6166.32147246
      61.71655221
      8581.51181018
      5816.97609055
      1454.79914613
      6855.40062689
      6232.83974530
      2238.33196912
      4858.59409314
      4411.23228814
      2249.93212605
      4702.73383551
      3148.46167643
      1280.41466413
      3167.50387951
      1076.84537713
      1286.97054238
      1981.92901322
      208.88199941
      202.65994329
      -73.07513291
      -159.28299720
      -47.35338787
      738.27521171
      -409.32317036
      -452.24896259
      100.29095744
      21243.51435289
      12462.83329086
      6675.68327728
      24772.30083375
      25140.29947768
      16476.23473053
      14986.91855495
      13125.58760687
      26479.49936413
      20815.42130857
      5442.60047333
      18000.26733263
      17915.85155609
      6091.38714684
      3460.87638053
      13244.94528444
      8231.02813852
      18053.05676401
      6021.49434616
      5220.65514896
      13602.14171854
      1598.99184446
      4850.08172623
      14685.22958940
      6466.67698123
      12402.57616396
      5756.37387819
      4752.12155283
      9149.93898361
      11893.46514345
      5970.27144801
      6149.11326041
      8183.92875416
      5067.05510323
      9268.80335996
      2593.83328923
      3961.39231262
      6566.02917582
      4964.19300926
      1486.77451032
      4427.92964579
      4439.58607400
      6964.89990196
      2900.45701564
      4904.39871786
      4966.52104107
      965.33201017
      4789.25865077
      3153.02860654
      1526.99962317
      3324.33030670
      3142.89831034
      2392.80524444
      2427.08459171
      426.83437096
      2568.36681466
      1315.29028506
      795.89740380
      1454.40722564
      1124.58996042
      825.78616138
      418.62365104
      73.38066919
      142.64764187
      178.12880382
      440.90568179
      24788.80582664
      15903.40634400
      7770.89747448
      13630.33695801
      18098.33122165
      3009.66627076
      25283.31272303
      16484.55811123
      16083.05521727
      16466.23757543
      7315.77888330
      16359.60563236
      24845.30517466
      7935.96452455
      15029.49483263
      15083.09188772
      14800.24587295
      13221.26362482
      3377.52184528
      12958.77877951
      18654.48491401
      10017.99282266
      13942.38519255
      7406.29522939
      5364.14983868
      14147.48773433
      7381.03683851
      11177.85103516
      11616.52098068
      10770.49944256
      11863.51378898
      4488.94821113
      8195.06546077
      8319.17526920
      3498.75963766
      5572.76852509
      10275.81054912
      4573.19738827
      7666.34343467
      6057.75308918
      6267.87493838
      3780.01055423
      2644.69357556
      3202.09357572
      5524.80722241
      5531.55485672
      832.49146078
      5013.79925697
      5325.75507930
      958.93824143
      1323.87688507
      1938.70788606
      662.74117343
      1980.16541610
      1221.94435162
      33.53843183
      1278.43312086
      1031.55798510
      1796.27450361
      1180.90078694
      399.23726025
      633.84304864
      167.06989102
      -37.04724632
      384.33172298
      611.55872983
      13627.74380851
      13622.59940682
      14052.82589931
      13192.58153714
      17586.74962876
      22950.80586302
      19178.71038542
      5784.10338730
      13289.06544222
      23381.40963626
      8142.21438496
      5145.40932597
      12881.09003630
      16278.27822501
      5973.38735853
      4741.91022128
      11773.77285786
      17790.04596088
      2561.18997660
      4926.99389216
      11393.31788007
      7269.80979890
      8430.82888823
      16510.70341269
      6620.15738759
      3535.53404923
      16393.55576047
      12492.19426297
      1408.52749202
      12793.09060995
      13396.37598932
      12303.92093692
      9091.87680485
      2526.39541534
      6823.70823125
      7474.76659247
      8363.39026136
      6335.03114419
      6705.19472828
      6519.35973351
      2920.48741642
      3873.59562917
      1134.00029439
      2534.04873692
      4573.08937301
      4188.73864604
      -344.18111638
      4153.42931013
      3258.14805649
      2095.76021911
      3960.81803270
      2725.77224449
      1553.51097683
      2670.58566934
      2190.64325467
      1413.84468356
      2235.01312597
      -127.74513514
      328.50671610
      902.12695374
      -521.87041514
      701.31528192
      771.34654158
      -219.53079403
      -367.01883559
      653.68562514
      10468.04702629
      10773.85679878
      15924.21795269
      36368.48572674
      17432.94455285
      18593.89027850
      15960.08298241
      11265.21474450
      13407.83249228
      18127.85652992
      10760.25614164
      15886.91702070
      18609.12633249
      23688.40059723
      8861.54537180
      4236.51745350
      10515.06809610
      12117.46341320
      15196.15665144
      13295.27466928
      13849.12879080
      25124.21304543
      6954.17176824
      3943.81815829
      11448.88082105
      498.48424884
      18920.56054022
      18452.67624072
      -2650.14526500
      10813.15884067
      13437.70996832
      4883.30528772
      11152.69726804
      7155.79396609
      12139.11152506
      7162.82371179
      9812.43731757
      9776.40694550
      1477.08859321
      7515.65100984
      8307.88388220
      4841.41584086
      6838.07048577
      7236.54069631
      179.78414028
      3798.56410406
      4192.52957216
      -108.05869336
      2221.18557827
      1572.63322314
      3122.42385026
      3712.91693937
      899.94588584
      2783.92996183
      1903.48426774
      1575.46003779
      1410.05682245
      -110.96887592
      1295.11300229
      486.30448826
      -345.13080313
      680.23904682
      455.10254025
      519.13204045
      37.40854857
      232.18006448
      12487.74927365
      14736.60441226
      19075.69206201
      15669.34882180
      18883.22739424
      16308.72716127
      16719.68578914
      6971.30118663
      18653.25458453
      26238.23597124
      11834.09013100
      4890.81320545
      11420.46043025
      16362.94948450
      13940.15099610
      6603.21079199
      14313.75256711
      14647.87368069
      11298.29217175
      14690.89643429
      12295.11441255
      18538.07979871
      7018.33521979
      7587.45590861
      14802.20523695
      9539.61884802
      8880.73833462
      15147.22855194
      8906.59506963
      9432.47230301
      15219.95197013
      10232.99155541
      7158.98293843
      5423.54710871
      14640.78360532
      5286.20970988
      7042.02532340
      6720.63021835
      1268.13766935
      4240.77397410
      3436.82804578
      3774.80627365
      8777.39359464
      4350.89224874
      3643.34262092
      4428.02153518
      3770.75705108
      4526.12458857
      4228.96171186
      277.82073108
      2623.72179194
      3499.47196995
      0.51449005
      2697.28146010
      2164.49008375
      -11.04371788
      1047.49344357
      608.18603358
      -296.16432432
      224.53071450
      -90.79642573
      97.01861960
      5.26348755
      -153.57486325
      156.21724651
      53.71823039
      24596.72658970
      21592.11756327
      7017.66631823
      19116.88862427
      10979.63672302
      4076.19427854
      1545.52093422
      11906.21782967
      16438.97658620
      15301.06322136
      10076.48702681
      16258.18425190
      17297.50071890
      9304.16601364
      16340.33941841
      14470.89033794
      8271.46329991
      14033.28496555
      9615.58648865
      6922.73682692
      17841.12781832
      12426.16471842
      10051.93295696
      5997.74748713
      5322.53201375
      16826.98544090
      9358.34309691
      7471.26904906
      10456.66567240
      5847.23847692
      9278.70957106
      8658.72797139
      5495.64595847
      8640.25783559
      6475.38178742
      3992.77198162
      10442.62147105
      4599.13567664
      376.15393249
      7051.67887903
      6810.65113987
      1095.62248814
      805.64743960
      1425.61966151
      3023.42881959
      5321.36332224
      2220.23739293
      3482.23329997
      3088.23495861
      390.73794857
      2785.08286923
      2831.55177041
      -738.07180830
      2804.32455292
      1618.18530234
      1047.05483236
      797.92950585
      1048.22999484
      1154.53859053
      1026.83825026
      246.98672025
      634.73795334
      338.45457000
      -10.81798924
      -101.37136630
      233.77242190
      11804.12508766
      13895.53670670
      11128.65827918
      14031.90928629
      33655.06376507
      6465.95418894
      21162.66108633
      6875.87131665
      13234.91989691
      14714.79240574
      20971.77891423
      13475.58341187
      15822.70959173
      8744.35577013
      24383.01456690
      13823.54454337
      17272.82287237
      31805.61876315
      19819.77439051
      4288.12888716
      11886.00574555
      16842.12687900
      6259.58310466
      12694.76169024
      12522.50679356
      13425.85577049
      7997.12853880
      11191.65799805
      10690.94975452
      4052.51980954
      12816.85963738
      10214.42462335
      5874.21356790
      8737.72300855
      9945.36390382
      946.72368483
      6371.90967524
      5432.53331952
      3700.55533316
      9526.30991427
      3746.43033929
      560.23037265
      7251.29855656
      6835.03232944
      791.76541080
      5004.09810791
      4249.57990163
      1497.88896239
      2271.44028592
      2787.80191643
      31.03168643
      1076.87820057
      1132.19140877
      1183.28634375
      1171.62338940
      649.23055155
      2365.45923550
      1310.14534682
      911.22804072
      1496.40430832
      369.26539291
      942.42491813
      51.90773964
      -12.57528293
      256.85618955
      114.07321410
      24245.10473709
      8865.45861101
      248.62313233
      16321.17181833
      10359.22459826
      7716.22758092
      19631.56076997
      11524.99006735
      8806.02995460
      11916.11493463
      19061.65935166
      12411.30630200
      783.68771672
      6222.89870950
      16718.85094974
      8642.11589518
      7756.83735255
      13701.38868309
      12464.00528006
      14203.80433539
      11964.04023410
      13383.61700515
      13812.77811354
      8041.09541136
      10872.72333098
      11973.23073748
      2225.39584003
      8232.42155575
      8757.14101212
      2839.56661466
      14126.83815714
      8257.82318366
      4049.21039755
      10782.59609195
      5479.40375686
      6684.76676510
      2379.74586435
      3208.34156614
      4541.97837984
      3923.03922595
      3625.57546085
      2222.49352199
      4500.52570722
      3499.89456087
      1917.99774007
      4518.28423373
      2097.06228717
      567.86866535
      2238.19022997
      2383.72198686
      3736.41551827
      1192.22460706
      370.82210518
      1898.64139462
      1724.63408811
      399.69536123
      1626.07511139
      1229.17466473
      -581.72622243
      1203.98184097
      -508.24225655
      125.64024927
      609.14006808
      -586.07947272
      121.00231600
      -327.25265779
      30111.34594642
      12100.54782988
      12024.93355113
      14892.38079554
      14738.79078619
      11307.10087682
      16464.37423369
      14314.41476076
      21813.68330416
      12714.11919016
      13433.19830213
      9255.49753289
      9960.31990064
      16457.32073484
      18618.60434638
      6956.07557835
      15332.66498448
      9654.64755118
      3669.64095716
      612.27233780
      5708.54548738
      9530.55736188
      10404.89071222
      11512.23552637
      18401.85833633
      6402.04447302
      6197.99443793
      10217.18381138
      12279.55521177
      4120.84060183
      9885.20549420
      7743.52409821
      606.21473360
      5485.87193059
      5388.87370128
      825.03559384
      7560.94361824
      5350.73434158
      2773.40523310
      3814.67153852
      6683.19427171
      4261.27470057
      4089.74793819
      3796.46977625
      203.89105514
      4564.99839181
      5069.59037051
      444.41201009
      696.52178580
      1338.85985235
      1876.88641342
      3426.52365722
      413.23309440
      2393.54116717
      1318.27118945
      645.32409694
      1032.66119396
      373.97630694
      777.73576106
      168.97602197
      -928.82690724
      522.01940207
      -235.00955648
      161.59224911
      206.99908415
      209.51072743
      31219.95436519
      18755.50333785
      4269.54616796
      17112.57738921
      10195.80132118
      15409.02752045
      11418.35546165
      2697.34121048
      12626.64558773
      10292.87714325
      6653.13077709
      9959.36041650
      13835.42844637
      9256.07695886
      7239.33154973
      11481.29928833
      15148.52000468