<?xml version="1.0"?>
<VTKFile type= "UnstructuredGrid"  version= "0.1"  byte_order= "BigEndian">
<UnstructuredGrid>
<Piece NumberOfPoints="5123" NumberOfCells="5123">
<PointData Scalars="Pressure" Vectors="Velocity">
<DataArray type="Float32" Name="Pressures" format="ascii">
      -297.71982971
      6464.83035164
      11944.04931711
      -35561.77368429
      -25076.91863939
      18891.07634716
      -20482.92742986
      9928.59496331
      10002.90731904
      -37979.07088609
      13306.79399574
      -24929.46055353
      7825.83614885
      12095.07274640
      -24289.64383439
      4686.63549012
      -28172.76905675
      5819.68513227
      6296.76187993
      -19896.22698744
      6380.35292284
      2484.81872357
      -1763.88200561
      2257.76100746
      1794.75115647
      4874.41593932
      4245.10759569
      980.44634354
      -1212.41090365
      -1493.78765128
      -700.62086989
      3523.51514328
      -14350.89839908
      -12806.21715939
      13624.87177699
      14666.45109353
      -189.22177776
      -3922.01066430
      -4365.44762743
      -12158.60329288
      -1792.25199019
      10772.78508255
      1763.05777830
      682.31248561
      -8092.08667687
      13111.53848882
      -2767.28118479
      641.68152640
      -3955.48661329
      -10417.53142015
      -2725.06164853
      -712.58689422
      -577.29610792
      1667.95530102
      -951.90718989
      -583.87681959
      -654.75559163
      -1092.15173069
      -61.25969473
      -10.82641189
      -380.01423409
      189.17613428
      -354.05429468
      -1432.42525554
      -359.43753655
      -331.33180873
      4770.55996313
      17178.82246534
      4716.44385798
      8340.46677513
      1754.15791272
      1854.30178790
      3070.71980457
      701.12581325
      2239.27641299
      4838.12390346
      4594.23434949
      5154.76230567
      2548.40859405
      1333.27017809
      1900.87830878
      1413.99013409
      2563.91956375
      858.29004027
      1989.21571012
      3003.53223746
      2628.39428291
      1743.36356656
      4319.69164151
      4552.40807677
      2513.63458008
      2988.44658673
      4088.55588913
      2023.16230266
      6320.19071306
      2885.58972497
      1331.56527398
      2680.47886890
      -3341.03383428
      491.09256523
      -221.28076384
      2638.11925420
      4115.74624999
      -1379.33072426
      -658.26945327
      -888.73291402
      831.08169787
      423.45013875
      505.93478194
      356.02126970
      1669.90561255
      -2412.25561008
      -1396.71811008
      674.92960921
      -2900.12036083
      3216.55742035
      1812.05065770
      -2484.04280750
      366.18660544
      -3275.30623876
      267.52363201
      -465.34248116
      727.87023132
      525.21805611
      -4099.35278441
      95.87772687
      -2271.76111405
      -289.23467106
      -199.78872937
      -1935.50128375
      -110.24355692
      227.79429413
      6831.51650455
      7124.73480570
      7359.64639069
      -462.00834823
      7059.70866547
      5653.70414950
      6152.46722739
      8728.76765511
      5008.07641715
      5370.74340398
      2313.34392552
      4423.84530472
      2902.27872507
      5881.30565907
      6058.42036483
      2705.28916773
      3204.03854072
      2011.79024836
      1865.09986331
      6822.86899514
      9038.62229495
      3848.39502212
      2942.68761758
      4358.91261968
      3386.16408648
      2250.88379223
      3158.19436197
      -297.89890106
      2408.83708549
      4833.91436400
      2106.33590998
      4714.79635879
      4495.10631892
      3287.57180925
      3684.88614267
      3046.07123943
      1426.22307166
      959.18816668
      1593.66671218
      534.07901628
      3112.82291355
      -996.48515726
      989.99334488
      463.10250780
      822.21970216
      1498.07279748
      -407.17812170
      1353.56039707
      -2304.52584743
      -1513.99490537
      545.12682681
      -525.23447330
      884.91185575
      893.83503447
      1850.79236177
      294.64769583
      -5.29137049
      1124.52024566
      3816.67717136
      2728.71791009
      2059.91066323
      2248.56315845
      1966.36700363
      -2246.16220913
      -766.84807899
      1179.16269169
      2788.62572432
      7998.92831258
      6132.74537055
      8230.44590184
      3724.46368920
      10336.91708540
      578.34410160
      5270.35198709
      5025.58237310
      5221.47591436
      7212.50278434
      11577.03923685
      5112.74746996
      4434.28140582
      11000.89889271
      2269.27602743
      9525.38798589
      9151.42283812
      6132.47430922
      4400.69392741
      4668.41878155
      3828.59394950
      12255.19535715
      14936.50581817
      3667.95700932
      4076.39769869
      3153.71304098
      3215.03978189
      4665.46545101
      3304.13750112
      889.48104999
      3690.93943116
      3115.19625903
      6267.66140261
      3895.80611881
      4324.34841406
      9875.50578315
      1837.93057405
      2147.33826573
      2221.09123236
      3310.50635384
      87.28723135
      2694.22527095
      1850.52429445
      5842.63364112
      765.38838985
      -1275.17031797
      -3844.03455574
      6924.08465558
      5259.02058463
      3176.48950987
      -7493.81290417
      4568.31526114
      3743.58186744
      -2974.07619871
      5419.50045897
      3911.55075423
      1667.04688710
      1754.90893689
      -1089.61054692
      -2466.21248225
      -223.66308547
      468.35548461
      -1414.54604960
      -332.15198274
      1476.86165315
      6156.97195422
      6500.93064757
      14146.47570253
      21671.22929485
      9644.06554039
      17832.15350799
      15038.14266424
      7140.74733188
      -7124.29108407
      10106.74981423
      6795.84813225
      3846.20203802
      1778.69652094
      4022.53565441
      15674.84622537
      6175.57020904
      8992.49667946
      5092.19757876
      4854.88723159
      6725.30817672
      6361.87507684
      -1057.55520516
      3107.99035532
      2101.37123210
      9750.08214535
      11902.72252792
      3120.65075587
      1325.83362645
      2393.13321424
      2817.37461420
      3753.05670589
      446.03955402
      3574.15060454
      4502.76338466
      4841.39997667
      4209.50011439
      7027.37176880
      5634.10606679
      4816.56676706
      4029.31159967
      4575.95849983
      1967.62029755
      4557.65574733
      2602.96822748
      1108.22971831
      2882.67936297
      9365.71686858
      1255.41456971
      458.77019879
      1244.30360141
      4236.40568861
      817.94360214
      -3938.26505325
      2174.05810768
      2585.52351506
      3531.27345696
      689.53395649
      3638.36227123
      2084.84157120
      -1534.93044651
      3901.68233709
      1649.58646380
      521.82904198
      3140.89773041
      -675.36871113
      365.83321575
      -17305.06999468
      8748.82186151
      13715.00062499
      2628.20709132
      15382.71404405
      1740.23809051
      6045.97429140
      11364.17147858
      10077.78885995
      8481.27238818
      9618.59978340
      4529.55018303
      7063.77674294
      5329.24229947
      6027.26199003
      2465.03028288
      9396.42606816
      7531.92703466
      5380.56819442
      3014.54914268
      2553.63123821
      6834.41538724
      3320.63612748
      5902.36188514
      7918.19478244
      2075.23023884
      5577.11916323
      3816.96429930
      3791.51726123
      3020.73893908
      1520.78633410
      4094.19032576
      7666.93712056
      4790.12346158
      4492.18251619
      5737.37760348
      251.11243846
      6669.56054258
      -274.59710311
      7908.81238330
      1628.46097092
      2912.61693810
      10139.60117781
      527.64950097
      2822.35200790
      7603.96494015
      4034.95456695
      4449.86545715
      2981.09361174
      199.19580429
      2469.64201526
      3805.05726314
      2278.36270944
      -2478.85882078
      2522.44410946
      1916.98889506
      -210.31846888
      472.04646561
      5685.05225286
      3549.43457902
      620.91042184
      -347.77062738
      3366.27598262
      1234.97284771
      -468.37359905
      534.99146252
      -28807.02041058
      10729.95638062
      12318.80428907
      8336.65970834
      6201.06278572
      2237.75851173
      2339.18777455
      2612.84437099
      5255.11704389
      5168.34019324
      5150.63986656
      10291.20442789
      2535.20665128
      3446.85113456
      1806.46926682
      3813.84098429
      6125.11400801
      2479.61624848
      12443.30229704
      9879.29394168
      1701.99377771
      5148.81030070
      3580.33026448
      10147.73543403
      696.61910019
      11500.63579648
      3890.13001566
      4263.89719857
      4805.82416474
      4008.16585221
      9087.36939522
      3087.28168520
      4515.17332361
      2298.43614300
      4272.93289406
      7348.86195879
      -761.25788810
      4314.19312089
      5893.12568013
      4519.79350152
      -1042.11910017
      4742.35618071
      3251.21349156
      5113.78027724
      6629.01962696
      -721.99741940
      3613.73311330
      3189.72192978
      4109.22593348
      3712.21930525
      3835.44647146
      727.12209993
      425.02030222
      5000.82922592
      2332.24463065
      150.70931225
      -496.08423471
      548.82297342
      1307.94002192
      3282.34781443
      616.14969582
      3009.08428310
      -1152.35230833
      841.80217902
      -900.54398668
      230.93041664
      21403.03122588
      12850.67093296
      4671.62955065
      870.34763441
      2103.97873684
      2282.68318949
      8396.32156625
      7740.71271628
      22255.24386061
      3780.60886501
      14937.81175287
      12821.61489637
      -690.18128494
      2545.99039801
      4858.22096507
      -4634.28065353
      4138.71904923
      10972.49206876
      8777.97524745
      -2242.88256890
      11961.10421010
      12208.49642096
      6127.87786161
      1467.16263677
      3873.45669927
      3767.01539964
      1388.95631608
      -400.76531900
      8224.95715465
      8745.91221400
      7775.94142126
      1120.08777537
      9882.19608689
      4774.53656430
      7326.83199764
      2773.31353193
      4059.01529448
      1651.24522313
      -399.93891046
      7185.76457258
      5869.85522746
      1391.99497398
      4008.58426945
      -383.23694063
      2175.56411012
      772.43123825
      3722.81693422
      2408.13178327
      5066.62513257
      4148.46938513
      3310.46828988
      2129.83718293
      5814.07959453
      1678.65426983
      1796.34834747
      2949.77038342
      495.51025984
      3054.96787560
      2106.40216377
      2010.41832376
      361.69130353
      1942.95496548
      -3218.01500331
      3168.29634090
      -246.95667973
      258.56726154
      -18063.76538625
      3751.30905513
      3052.44948913
      7895.13528929
      11863.45389794
      7495.49319692
      3172.30851220
      8424.34577532
      16844.77983720
      8080.20605676
      9029.22755436
      12896.53907345
      1615.07406534
      3794.50933343
      7510.58556084
      336.59466261
      7078.07657917
      2341.06963525
      6973.17735602
      3577.71343582
      11075.64737861
      10126.81330807
      5699.30782847
      5781.83931882
      6568.84748759
      4645.49383998
      4403.70868145
      143.11553876
      2255.79850782
      11423.47437444
      5895.63821120
      6224.45566296
      5483.61629451
      4892.46342571
      13141.72819464
      2479.75560070
      4246.82139847
      2366.33850979
      3662.01656367
      3251.39983783
      2057.19088439
      5066.42092172
      4614.58398544
      5121.62877161
      3352.28569425
      5477.72096669
      546.26357625
      2245.24385516
      3539.55450601
      3312.47336766
      4026.92167052
      4348.79530890
      3992.72823902
      -839.31570022
      1249.58331880
      4373.99200105
      3140.54999217
      2037.37103946
      1217.05288826
      2822.02876860
      4306.66721164
      2031.34372920
      2065.25314768
      900.01210136
      2023.27514533
      1184.53839069
      -35532.71009678
      10290.56399944
      25519.82906309
      11817.37652412
      745.17789777
      5744.31079445
      10207.13789399
      15499.78823906
      11119.91244101
      8430.51060039
      2243.95763579
      4216.11371671
      2354.65742945
      1936.37789195
      6436.45718981
      4198.09805151
      7910.01736409
      13389.71436207
      9381.81066968
      8361.90267262
      6409.21989378
      6666.10364067
      4500.99235393
      3032.22856300
      6601.40606651
      -718.38790831
      2715.26287197
      2575.44242847
      1324.40370198
      6446.86053944
      3852.84183573
      9342.21227559
      7084.29113944
      -1195.07231836
      1453.54776522
      2132.53902293
      8439.99774786
      3374.05297405
      5803.03000380
      3434.50095815
      4392.17312299
      4080.83676019
      2382.96322727
      3413.82819794
      2724.16700638
      2356.16812776
      3570.96091520
      5591.95441009
      2454.64635487
      31.35942369
      5212.57519461
      5702.61340747
      -98.16905539
      4620.67271884
      843.27413090
      308.09787285
      -698.77563373
      3047.15537560
      4125.72903758
      855.29840837
      -179.96554151
      6946.83086180
      2919.38915814
      -86.17065856
      981.25478614
      817.43534633
      -32327.05726218
      14493.61069184
      9728.01916641
      7166.86773035
      8736.97656996
      11170.27329037
      -318.25290447
      6739.79282547
      3281.46952364
      2083.19114940
      17451.83321742
      -2221.36084059
      4791.29930334
      5424.85153656
      4903.45779664
      6344.27587813
      6060.46819994
      9520.25375909
      4240.66776123
      9065.34762714
      9266.95461007
      -1491.90829096
      2183.12375474
      7917.28948871
      4118.00028555
      2551.21368266
      4694.70527042
      5827.04188813
      8786.82434550
      7404.82256080
      -110.09094488
      8678.87978502
      2492.71427269
      5355.33842485
      4839.49637365
      5290.49484944
      8310.61464292
      6888.46259739
      6279.66219277
      5023.53436568
      144.63962203
      2982.58257394
      4932.52778666
      3327.80269680
      1680.34623466
      4933.46186450
      3984.06258254
      2877.00134513
      2440.09505621
      1222.43598492
      1320.29804028
      2062.61130427
      1663.56138464
      3498.38284017
      -383.50738590
      3788.29895981
      230.64816896
      960.49480250
      3733.05800432
      19.25023745
      1501.26426045
      1022.80778288
      454.46937620
      -1669.02627804
      1340.69320849
      230.27627595
      14281.44509011
      9684.35743384
      710.83018032
      7024.99075497
      1632.11269990
      10372.10861522
      5851.15449138
      3812.61830249
      5784.10915411
      9440.10436833
      -289.78387028
      7809.42263230
      5249.69575271
      2454.04652047
      284.77059099
      11011.09082670
      3035.61384798
      5346.14963138
      306.78390046
      4746.64868327
      2535.57088488
      5825.57593119
      7240.54114813
      5126.46558900
      2173.01155971
      7344.70911428
      3497.95711705
      146.51408635
      3098.30392866
      5641.80067724
      1342.60978382
      8562.03250074
      6067.66333230
      3174.82398803
      3101.28798076
      2015.93370442
      8878.71462505
      4148.30306213
      3712.66900729
      -3088.05479716
      4389.83494435
      6807.99818652
      10020.55642187
      7563.34409577
      5193.95578613
      5525.37204101
      3187.59813558
      5421.83332904
      2530.25514021
      1532.34846007
      709.05951190
      5799.43909302
      4105.26292314
      -1016.07679496
      4326.21917923
      2807.21816231
      1783.09365779
      1133.97553744
      3977.70504294
      2472.58737796
      329.05554056
      724.14061653
      1435.02607743
      -1851.94457460
      433.52968681
      -672.59446933
      15906.24809796
      19342.60885871
      2575.54536697
      5722.52245249
      3753.94605679
      5589.70433131
      5488.28854493
      8020.52930332
      12465.19840410
      4410.67805461
      2519.85649227
      12899.38315712
      5220.29536807
      4575.61649919
      5069.88065377
      -1041.29796795
      495.15337727
      184.93297499
      3474.79956777
      11192.17745388
      6498.78320484
      -2222.76615477
      7165.92569952
      5070.22846614
      4193.09511688
      3390.06716215
      10671.43541917
      4335.49184118
      -9200.85893299
      3798.91612287
      2550.12751706
      5107.72429206
      6456.74039186
      3898.54431181
      5522.31169936
      4944.88357968
      4362.62336091
      7032.08935365
      8224.73683261
      5331.93608345
      457.28490442
      1457.82880366
      3501.50127153
      3770.48102363
      2858.75653323
      2258.23375236
      4582.43023214
      4957.74791519
      4522.73036572
      132.51534145
      926.69572287
      5653.49727876
      2100.08329402
      1478.00915840
      3767.92622996
      1960.71794702
      -22.82430698
      1009.99878594
      2203.72237364
      2212.82188726
      2191.89403111
      2163.19572873
      65.62525250
      301.81751372
      -184.92691289
      -871.32953651
      10190.40891184
      23785.90515259
      5850.82606821
      3590.01288519
      7410.59388565
      -10041.87479587
      -929.53348327
      3664.97536464
      9540.64775890
      1215.09983643
      5470.55908437
      5734.42657915
      1075.62159205
      6712.38019627
      4927.95479877
      -10309.96541487
      11126.80729308
      6083.90200660
      678.47237810
      15669.12174399
      2461.73157999
      6709.11488720
      1820.45027339
      1777.90514551
      3997.19234868
      2070.66680439
      7025.72554235
      1647.09413555
      4283.09968151
      3367.42809101
      3729.60640996
      6313.13004326
      2581.16773787
      2575.63122139
      6303.35595522
      2526.82036090
      3682.17133686
      3763.73927896
      1751.61478809
      2122.50004527
      4283.57756906
      1183.11053255
      4092.88303738
      2644.26934567
      5926.60866947
      3494.97747047
      3281.22303898
      2683.80035203
      5495.88543085
      937.09322136
      1328.83411666
      5383.97169625
      2751.13894933
      2467.17002956
      1937.27859602
      892.80248286
      718.62322555
      2386.89070989
      1832.36238687
      2419.50210296
      740.44942356
      1819.05767879
      -716.53963056
      367.67297161
      460.96444573
      470.79116907
      7243.70560837
      6079.65628057
      6992.05638727
      3385.15388280
      4127.15488184
      7928.73422716
      2912.28099260
      12982.75888898
      6923.95141319
      3575.45532356
      4608.76460072
      -1027.38481460
      6215.45884418
      2850.22164014
      7119.26781743
      1772.33868593
      1133.53829794
      1580.68921533
      3098.25771005
      1908.66395079
      7567.67961627
      6629.65631622
      -2134.71142753
      4823.12101217
      4680.51591464
      4628.61763108
      4556.62140828
      2741.35598319
      4101.10927491
      -3359.61471398
      6174.58195959
      -925.02103469
      1356.51242235
      5542.09406664
      5896.43656410
      3718.18755246
      1568.26586852
      464.31723776
      6248.82795462
      2495.49703219
      2845.01804472
      7028.77730564
      3731.74361544
      4890.27780522
      3019.65766895
      3184.65758371
      3259.40304528
      1734.98362024
      5641.38561823
      1995.41510710
      1315.28711535
      1514.15887997
      2678.30007177
      3957.15767126
      2250.31098453
      837.78448559
      1631.13325923
      3157.71807674
      1443.91458959
      2143.74366555
      22.89062698
      1249.97823111
      1790.94918336
      -492.94463628
      -1156.83929930
      -2300.12626379
      9603.64834087
      19610.06234443
      19897.25583870
      3659.03522506
      1624.94518768
      -2608.99257907
      8187.35031168
      4552.48419736
      1437.20470312
      3641.42829800
      -217.26759361
      2543.34153097
      3118.61762360
      3246.96040957
      4066.38718597
      127.19444889
      2976.63512138
      51.25892362
      95.02365942
      -1536.39956209
      -163.12168938
      9874.95659747
      3723.16701955
      -575.44634909
      4216.31100819
      1165.29782880
      2092.52486552
      6213.69895444
      -4303.26137128
      374.98337644
      3679.54866258
      -759.32425504
      8175.68555605
      4232.84551247
      6932.99603863
      1301.36534629
      3211.35732574
      5302.62334811
      6495.04111414
      1308.02498534
      2413.16778026
      3929.08231290
      1611.59688518
      1256.96597536
      -2171.11178356
      2448.10455490
      3339.92456504
      -348.32412623
      -737.41949231
      1048.66261739
      2408.62482920
      1788.49739529
      1712.72646662
      3143.19840332
      2838.06013191
      -547.79201617
      647.12199251
      1026.70466377
      1358.90122397
      2307.29471675
      554.72397976
      383.64504710
      2543.52266725
      -2603.94105399
      369.88291238
      1662.26851945
      12645.34558970
      4394.00299761
      17667.21049466
      3093.81460817
      8178.69882097
      -296.07177393
      2765.64516843
      7419.02947677
      8100.10875228
      9788.06808995
      9822.65401185
      1278.51543501
      4535.20378590
      -37.90075829
      -287.66361506
      -456.12835043
      3034.00283337
      3839.40148428
      3879.08563230
      10097.70089910
      1221.88151213
      2390.62225848
      3253.17459064
      5.16723106
      3846.13535795
      6342.67206996
      4341.20880580
      5675.35478450
      764.71593357
      6170.92815280
      329.21366236
      2936.88329494
      -480.41450583
      3018.31798877
      4761.10459287
      2563.57851680
      5998.63222805
      7195.55495102
      1481.28280904
      146.05456843
      3290.44231698
      3986.36842657
      4727.46594575
      1610.84326083
      2350.23609198
      -1144.06157044
      2136.48668679
      3255.87517509
      820.62577955
      3896.49737942
      1836.25709372
      1111.55690052
      14.81261958
      1035.79016180
      3701.16646021
      4079.28425482
      3612.15403042
      1211.69977218
      1205.00666374
      1571.11089562
      -348.89698601
      3327.39493834
      895.50094486
      -2830.96587137
      1324.54024285
      1980.84077874
      14060.12930790
      3465.01655604
      -12239.29095110
      -17586.80199092
      -2520.05143566
      3022.14660516
      2078.90503042
      160.12924346
      1080.42447315
      3381.88605461
      5753.93268063
      2195.23221830
      4879.72415070
      3666.61747474
      12347.03647751
      66.38468322
      5363.49509487
      709.84650064
      1548.96566388
      -2121.45700126
      -78.19179602
      1679.67588811
      3457.90665111
      4510.54432694
      -396.70722292
      33.97881653
      3076.94210295
      3120.60344795
      2790.05812157
      1400.51683784
      4179.41652121
      -149.39655200
      -1382.40896704
      783.27227165
      4265.44959999
      4522.69774428
      2628.02131241
      1248.22067694
      3795.78027544
      4158.49446765
      533.54841944
      3598.16565929
      2887.52208110
      3829.84731106
      2035.89527479
      2823.30422723
      2510.79028310
      1358.14661524
      2340.70238508
      1890.55730136
      2822.19607810
      -434.98195189
      -1094.68385638
      1965.66796043
      2615.54064765
      977.55524321
      2524.85863391
      2070.09409270
      -2383.37071120
      3734.97407387
      2465.29095307
      171.66303065
      1617.21916608
      365.40574317
      -85.12887235
      1101.20597920
      18190.64706476
      10575.49456218
      13193.72840705
      3540.91243262
      9987.39661034
      -2486.84985981
      1549.66376661
      2060.24649251
      -8847.89573639
      268.88755879
      2630.58691184
      1298.40723675
      858.49006518
      1503.04143508
      3767.34407110
      -5468.70286015
      -1581.37783962
      -1076.00845735
      3210.52894013
      3147.83340243
      -1904.97336397
      -1105.96611964
      3466.26832336
      1592.46378540
      -582.88759480
      6592.23179171
      4567.29683918
      3466.01779485
      6758.80705327
      2473.09714294
      1544.28105894
      5986.14922175
      492.34468470
      -5134.09723164
      1243.14467106
      2032.14787246
      3319.27095355
      1857.68338666
      3301.30931730
      2915.15183693
      1018.99895201
      1942.73463654
      2101.97582684
      1070.78053723
      -363.03616432
      -4039.52623983
      1580.36026113
      1715.12119806
      4580.22188865
      1106.20950043
      4062.91153666
      565.24400698
      -355.61807671
      -1059.85440496
      1857.96740835
      3481.01173935
      2274.47582895
      3305.08997705
      -77.26102712
      857.71917087
      -105.22489284
      1909.97182474
      -3856.61117628
      1385.09402432
      1178.96818263
      1290.85332215
      6578.04835333
      5962.64408599
      9807.34906269
      6920.74293900
      8529.31323857
      -431.09490224
      6730.22825433
      5480.20394592
      -1564.84001143
      6081.01039778
      8189.27623258
      -2813.88270731
      3823.07314449
      3409.57902304
      -1429.47775834
      10684.33003159
      -664.32994169
      15403.91622094
      -2928.61472640
      1931.24075805
      2173.68924031
      1927.99781802
      3116.49760424
      2168.40640285
      -252.07565357
      1851.38711428
      1259.59392733
      622.06851823
      -1706.12335875
      2784.87487919
      516.30518313
      1499.54797767
      -3771.70300971
      -3899.97303728
      -3107.26664140
      2281.20190659
      868.30202693
      -6110.83901252
      3830.46443005
      6226.70385060
      4480.36019972
      234.03468659
      -1331.75154028
      -1991.69432291
      769.82828157
      734.92776409
      635.87577675
      373.61309773
      836.92068770
      4042.69214996
      4788.11638413
      2156.39144682
      -200.77749889
      2353.76772716
      3688.80497484
      3876.09488131
      3072.60279999
      928.21974693
      -61.94807687
      -253.36181506
      628.31801774
      554.03212945
      -1516.09428451
      -719.88646716
      819.15674055
      1533.77975660
      11164.49590107
      5204.13306930
      -354.18881324
      4906.68868645
      1044.98920436
      9890.95075790
      4860.58353786
      5186.68351164
      -8413.15929290
      1561.59838090
      -8155.05551129
      323.90865815
      4745.91252615
      12306.99933551
      1328.32036930
      -2905.21820043
      -534.97376068
      17422.25277598
      7093.92375862
      -5435.31822252
      9411.71671475
      3091.62071235
      4235.62460461
      6510.02053888
      793.22976458
      2982.08353983
      2015.01331515
      1794.55515357
      843.54447203
      5757.31230310
      34.76646572
      3286.48017774
      4006.95261833
      3522.59871660
      96.48655106
      1205.20486672
      -914.04355157
      2558.05419612
      2939.07661380
      2923.14183391
      380.97345138
      -275.86211299
      1212.06223570
      -128.26955507
      -729.92714592
      4844.92679041
      95.76563754
      -879.08981234
      1303.02521634
      754.37823925
      3789.36852482
      1513.29035158
      1060.96926397
      244.83973881
      1242.06500367
      1071.46222306
      3311.13146911
      926.29244298
      -190.25836386
      -1920.31241120
      963.84538910
      1486.86854422
      399.12538520
      -685.07366991
      1389.45308376
      924.31367072
      -19965.59071168
      462.46922003
      4117.90044182
      5496.89053839
      5436.35006308
      3212.75442877
      7432.12465662
      7403.63052208
      3548.08485722
      2630.22963453
      99.67585380
      -12549.46811487
      2774.17397078
      7994.62385692
      4996.86721263
      -1946.53728823
      2156.22414176
      -3111.03907478
      -907.60006809
      384.98290903
      4217.18015814
      2119.31773399
      4723.37077385
      3337.33901651
      8442.22758698
      988.71188945
      1305.36689272
      4503.37565193
      6420.04258263
      4996.92288504
      3828.81667281
      3072.83520708
      2611.96076178
      7385.20785850
      -367.32719006
      -60.56156401
      -244.06010495
      1970.53178382
      3897.57194234
      70.51991185
      2339.89522868
      1161.89341222
      857.28338551
      1491.91097377
      -3863.15823816
      889.47859229
      3533.20383326
      945.43430620
      817.29018327
      1982.42806090
      1235.89129313
      2648.19702013
      -171.85570489
      1342.45199805
      1396.52583000
      1154.28590538
      -499.26625483
      883.83329867
      825.49576002
      -2050.92082494
      2190.01321106
      1389.55829759
      -1886.42171727
      312.69386459
      294.51554762
      465.45879686
      -20679.69231914
      475.98718234
      6169.30672066
      2201.29000291
      1789.34057060
      5706.81062184
      5576.45490939
      2155.07393839
      769.83039872
      751.92302975
      3390.78399850
      4228.52184630
      1358.71357370
      5236.79161396
      -3943.51401626
      -744.63553537
      10005.69319900
      14853.64692686
      5393.50151984
      5497.44867146
      4000.29266899
      8078.56175152
      2777.29126177
      5944.69556271
      3172.65316693
      -2487.29501070
      2310.25860415
      2325.31500531
      4836.18779576
      4038.59830368
      2845.54978919
      6450.05810263