<?xml version="1.0"?>
<VTKFile type= "UnstructuredGrid"  version= "0.1"  byte_order= "BigEndian">
<UnstructuredGrid>
<Piece NumberOfPoints="5123" NumberOfCells="5123">
<PointData Scalars="Pressure" Vectors="Velocity">
<DataArray type="Float32" Name="Pressures" format="ascii">
      708.13381340
      2303.67857968
      23033.84214576
      -35561.77368429
      -25076.91863939
      2605.03837360
      -20482.92742986
      11820.30128919
      9049.23786541
      -37979.07088609
      17118.40358975
      -24929.46055353
      -12302.02942199
      11087.29183213
      -24289.64383439
      7717.01636645
      -28172.76905675
      8324.82589879
      5513.68782928
      -19896.22698744
      8736.85866075
      3613.93628743
      -3072.48615616
      2871.32323364
      6501.42064691
      4867.91163352
      2166.68967901
      646.19675487
      3005.93441329
      364.20374195
      -112.38492020
      -22153.48163868
      9503.90183118
      1298.97867107
      379.97889491
      6798.42095277
      -918.19494198
      -4975.17904435
      235.42073919
      1229.47849595
      -1204.86054126
      -1763.06646167
      -976.85676627
      -1835.30851929
      -2550.88330707
      17266.93660368
      -1297.36924910
      4383.11551457
      2370.95218978
      -11705.89788120
      -1206.45456038
      2064.06594252
      -993.71156303
      1034.23648016
      -4175.53376820
      -9.53097244
      -778.07668035
      258.92470698
      1226.22209794
      319.06632439
      949.08715323
      969.05201079
      600.20741631
      505.16809821
      1898.75924969
      1208.09802623
      10392.05170930
      -1679.44596883
      9180.43511793
      8373.55085277
      4873.53313595
      4335.57782254
      3087.15779295
      5441.62471062
      2562.92147650
      2984.04399884
      3965.94097467
      4543.65124764
      3513.75418926
      1585.63447775
      2759.67420388
      3008.77185844
      8237.22233623
      6720.70235514
      3219.06164708
      2209.80515851
      176.22779250
      1630.02232859
      8332.15756221
      743.60813100
      2402.30548930
      6047.74173999
      1437.24365746
      3102.91852759
      4747.94034448
      1708.35971066
      1330.11887973
      2165.00110188
      -3611.82718254
      316.18688701
      1501.56602840
      674.67358868
      4112.21138493
      -1199.05385491
      3205.25686788
      -2104.68440759
      -3298.78679595
      195.68458371
      3600.73039405
      688.55892018
      -1360.09108693
      3603.00435209
      3012.50930714
      -1428.76869261
      324.14659707
      196.02731892
      -2808.89826974
      -2637.89713240
      -2066.74514913
      -4260.18658757
      -5320.04388162
      3731.48698429
      -6154.44367278
      1947.38277186
      -932.77175220
      -1043.38200970
      581.94823814
      -2271.82551182
      -2170.59138822
      -2311.39700152
      1209.32676358
      -594.10837287
      3020.26755881
      7510.22678442
      1881.99294483
      4467.18090243
      5223.47112788
      6281.80131678
      8160.24647473
      8542.61424442
      7519.10671744
      8050.16902152
      5605.26145965
      2410.80024846
      773.08843042
      4792.88090033
      6099.44992893
      3693.92261438
      4536.13490698
      705.47123728
      1973.06537516
      5781.08261122
      10803.60689718
      3479.63141056
      3655.30797061
      3494.28682112
      -275.60127866
      3702.66737408
      7942.73414852
      601.32568440
      2698.93284282
      7522.00659950
      -4116.91003786
      4895.60726390
      2466.11835378
      5803.39285967
      6916.49961378
      4055.77602549
      1932.51312411
      870.32141686
      1257.86868171
      1037.53917463
      2686.79994372
      3911.23574875
      5632.13280623
      -7621.42599952
      2585.14531493
      1582.03524763
      -233.46106447
      -50.36401905
      2717.00523309
      3031.86092551
      -1262.12327164
      240.87672089
      -3368.31028153
      -1785.89981531
      -697.30997821
      459.16863045
      -495.81911454
      73.27587027
      -589.39321399
      35.69160345
      -2743.02834662
      987.74143930
      6.05886546
      -1739.42215010
      1259.88169413
      -1039.81312958
      3354.77843552
      9492.81619153
      3312.06504888
      5276.48248652
      12848.58248494
      7860.17990035
      7081.46907792
      5486.37034778
      8966.68205716
      1256.66091815
      7636.54005792
      12995.84901153
      7177.55891176
      5105.01319755
      7299.06990388
      6846.35006072
      8651.06650845
      9800.47203346
      4556.57585185
      4324.24722197
      2424.17313767
      4009.25298247
      10332.38705673
      14206.26429254
      3275.76286686
      5465.46697173
      4101.91318173
      2874.01161122
      3443.24645430
      1733.77253291
      1896.46891574
      732.20010162
      2821.75995404
      7436.31365623
      2002.44405853
      1944.00128916
      10574.72012114
      1729.71615610
      774.11410320
      4135.64670995
      5713.49272569
      2560.15904550
      580.94034577
      100.36581557
      5530.22380957
      371.03464974
      -2022.83804818
      -9.26083936
      3648.01577257
      -236.69234432
      3706.74299241
      -6649.43393473
      1504.25302302
      -57.34001403
      484.39243086
      5392.00664984
      -1155.09157926
      -1054.38389169
      -2690.81991612
      -1817.70842694
      -980.56576521
      -1971.23179370
      3255.89049140
      -3422.20307394
      -1096.38702306
      -204.92292476
      6172.40916035
      8720.73636744
      27149.57392749
      15165.71252545
      9357.85131951
      13870.19918108
      13821.94916505
      13352.26880292
      4104.06705952
      10948.69370784
      6157.08706235
      4542.48360483
      1553.98986756
      5246.45353220
      12237.54428936
      8128.21908565
      8213.41579397
      4000.80077825
      5124.37744559
      2392.98381258
      4842.79718940
      2335.45303287
      4764.39806554
      2747.86622254
      14743.42489723
      16182.20744986
      3996.51131296
      1942.00422308
      4260.26193413
      1982.12625118
      4940.62026559
      4203.93062773
      -158.58414307
      3956.36245429
      6066.33229919
      -637.89782081
      6253.21065731
      14232.93046673
      4165.76949904
      861.89393061
      5852.51116707
      -3571.25311508
      4504.80598474
      3843.27365877
      6681.12638425
      1178.97524427
      2297.00737285
      2329.08505755
      1420.82340619
      117.23872650
      1734.85864060
      4836.01830274
      1264.67006453
      -2999.24946543
      -871.92789198
      1184.62307929
      3988.16435696
      1826.63793615
      3355.73820408
      -2149.81691538
      655.44734695
      2208.50315625
      -2577.36560741
      3311.71760643
      -577.02046053
      813.25346240
      -17305.06999468
      8610.21550361
      13280.93719124
      6188.53843705
      11858.16332811
      2167.35336300
      4743.90455914
      12358.06870741
      11703.62221102
      6248.48957025
      12394.99424191
      6522.95962563
      6568.03340666
      7295.46268962
      6638.17431783
      7242.44551621
      12497.80553963
      7937.26523422
      9924.53890587
      8806.94296342
      6048.87135578
      7871.73208021
      4443.97969703
      9882.57291318
      7218.06216593
      2778.55828721
      9865.71017693
      1226.03228274
      6821.58187736
      3862.44013997
      5440.32777230
      4735.75950434
      6251.46288311
      2692.84229352
      6182.17646970
      3966.53804274
      -304.45195634
      172.71741152
      3978.62326435
      5247.42376215
      2754.14284955
      1835.92228630
      6635.70216530
      1058.52731791
      2219.52048002
      8008.68525656
      -4306.70733006
      4760.83009384
      7404.09769151
      27.09430630
      4380.44418915
      2360.28386928
      -431.62712263
      267.85555585
      2086.54883782
      1564.87056667
      -271.41238928
      2058.16227743
      2014.42078031
      -129.94677010
      2674.80540152
      2439.31391116
      1760.80922155
      1128.19388492
      -1680.37596807
      879.33570023
      -28807.02041058
      9792.60059966
      11773.44902779
      5993.09617590
      9320.67403294
      4988.57801510
      1795.89725445
      2330.52588512
      7294.02949400
      8697.81420587
      7492.91930697
      10509.39277426
      8184.19426129
      7814.94932604
      5744.90455582
      6991.77039348
      11733.90104104
      6530.30116843
      3484.41099551
      12519.64803118
      4520.26845567
      5836.49356289
      9787.03176804
      7252.51557292
      1221.66210351
      10672.72276340
      12360.29990367
      5269.20077652
      7896.53848193
      8301.01625069
      4994.33444941
      4352.16814232
      1533.74045939
      5677.65336869
      10338.58326363
      6227.39467958
      4771.07725735
      4395.14051333
      4951.92731926
      2989.30117977
      -2269.61480179
      6968.24587605
      2684.54176960
      4760.31754027
      6984.67942134
      3110.06992655
      -6106.45573684
      9303.59648358
      4967.99320130
      2670.70642056
      5403.69250363
      4058.87170125
      747.18494524
      3568.41534740
      2487.54044877
      -203.04013820
      2148.46075229
      186.37097280
      2239.13490747
      5945.52145691
      888.45123727
      4116.05671841
      -1588.80383840
      1633.27621123
      -1355.72297589
      125.80587479
      20214.67056341
      16782.35419632
      5223.21582712
      259.69464543
      1660.45963075
      1760.77917228
      8993.39839221
      6623.98916127
      20554.59365642
      8650.09655998
      7834.81162703
      13965.70753192
      8238.36362602
      10155.38690217
      6536.05657795
      155.36349364
      5000.18666902
      15063.94131578
      7630.08762518
      2163.44677965
      4656.68390908
      10297.75089697
      9322.74272579
      4721.19023826
      2562.89664573
      -244.01145624
      11461.59467632
      5867.37803429
      5773.74974041
      11238.09142745
      3705.61623906
      7136.08395528
      749.74041665
      774.41734620
      4329.04260445
      3540.25316349
      7432.11211330
      7583.91456225
      2211.35632844
      6127.16868530
      3946.80047471
      5163.29974667
      1232.52098450
      1198.96992024
      2675.03875370
      5171.22422918
      3917.57739692
      5334.24465666
      -532.25118355
      1028.72631136
      5339.57327482
      3777.42250045
      4893.76379868
      3734.23306574
      3786.31072235
      -819.55416464
      4016.05246790
      5008.72087928
      4945.25102661
      -600.55642589
      2210.87293280
      2793.00246973
      -1016.13212521
      3470.19082902
      -79.42030100
      578.99206557
      -18063.76538625
      4627.37501222
      3572.40460020
      7160.80666482
      14184.73143675
      17267.40734760
      8879.95719036
      7039.22375055
      20619.59410209
      5136.16319359
      13294.69664869
      12353.86668337
      4511.83941016
      9771.81099453
      6541.03249904
      3704.58894974
      12566.01199106
      5430.98395623
      7291.24476885
      5734.46702449
      10516.21998750
      6363.18968711
      4947.50385391
      6055.11930782
      7913.52307528
      3896.24470585
      4399.75664101
      4179.13571023
      1161.44900399
      6174.53446582
      8310.90450417
      3758.38507011
      4521.62506515
      4965.36487087
      5797.36126713
      1167.34249431
      2679.04730876
      4512.42980574
      2548.20936290
      2508.34612619
      1267.06823657
      3355.56009127
      3977.36417392
      4195.52526277
      3065.95356281
      1660.42638418
      1835.23475466
      3050.41084374
      5093.98981036
      1895.64019547
      -2708.32774472
      3059.52787693
      2688.81359996
      5816.05906525
      3311.86705816
      3271.32568890
      2882.12460464
      4818.58385846
      5221.85622300
      4846.73275943
      5998.24431618
      2818.33790933
      921.86118396
      -187.82060180
      -867.46341912
      1957.76461858
      -35532.71009678
      12475.47230849
      30091.34347056
      19182.40511184
      6023.38676660
      5335.07136957
      9296.77844480
      16326.08747890
      18230.40822091
      10691.59508136
      3304.76888596
      5840.74028462
      -2379.51517948
      11577.72587829
      8727.35058918
      5387.80420258
      3509.38246831
      15415.89761777
      4995.02015815
      6936.76019494
      2856.07396600
      3334.75042211
      8239.40116702
      -519.34319400
      6480.18341823
      8036.60735802
      6408.21885049
      3913.20069195
      3542.19076765
      4375.46074789
      4718.02474317
      13029.50527227
      6088.29792683
      4697.25677688
      3329.34271739
      3130.47275587
      4537.03885633
      1284.97770869
      4721.46046759
      5154.52786809
      5922.15927765
      3667.06992561
      294.82939585
      2429.91599336
      3461.31089763
      1668.73649182
      1321.04582096
      5127.65801835
      -1669.07775471
      4482.36478149
      3326.38052128
      150.48741814
      475.88229629
      2767.95025685
      5368.19755904
      1732.15209907
      2543.34560935
      3137.67312395
      6275.80551936
      3847.91483079
      1493.06723281
      2318.05095956
      2169.75471572
      1375.32707542
      246.80417128
      1675.73876209
      -32327.05726218
      14478.97448576
      7919.70743689
      4955.06577800
      10632.95882688
      9195.74298153
      8039.63001346
      10297.33291570
      9304.00407994
      -6461.10631713
      12543.87488730
      4915.32735925
      4774.58689038
      10172.46440894
      4929.84148217
      17404.15981123
      6819.47196878
      6499.19291939
      1838.97324939
      5118.01580479
      9809.50569419
      7716.81606204
      4304.94999290
      5833.71492523
      2829.11290584
      6801.35027744
      3380.01690587
      8947.73010369
      6115.64976582
      8285.71472061
      7381.88885004
      1565.42284925
      11032.53705196
      -17.53536205
      8299.29280600
      4863.72980245
      361.31727667
      5732.47479397
      9855.43858608
      9388.51706935
      4709.00980969
      3275.03483669
      2524.82977781
      3343.94204196
      3024.07687166
      6868.62799711
      -240.98026737
      1991.70467291
      1206.23238781
      907.00406679
      3827.50689805
      1375.00423737
      4067.30114976
      3693.25428531
      3550.03319862
      2489.66421637
      2056.09220574
      4485.17033531
      2404.94696882
      2491.37962817
      2605.25707787
      2421.14153594
      2370.13155533
      -262.58466383
      977.95405774
      422.60838810
      10827.18181210
      9079.73383441
      6487.93308882
      19923.86092019
      3096.97674078
      5887.52414397
      1301.94427257
      8421.88501858
      18582.53148227
      7667.09155395
      4043.97455387
      12016.75874606
      4539.65860006
      2601.21643220
      5602.09546708
      18565.67845873
      -639.70026251
      8349.12993648
      5361.42586939
      5898.82769316
      5693.87884999
      9288.09360943
      6255.52679277
      4212.13741749
      1470.12626223
      7014.66101620
      4037.90636783
      4774.54508372
      3384.98109466
      11827.44135073
      2243.31198573
      10726.33829337
      5454.75502129
      7088.36804130
      4647.47519966
      4164.23036970
      10205.69783772
      6124.94351010
      1994.95576802
      5151.48321247
      2962.63636220
      4131.60742166
      3231.19764224
      5797.83952173
      7117.84451724
      4486.62934548
      401.13840789
      4513.01018693
      1647.59037252
      5027.13899986
      3359.26842025
      3749.35920521
      3709.58543741
      153.10189978
      3697.77960389
      4009.31558827
      1047.39016647
      1941.20784840
      1749.99894696
      5034.29109658
      3531.48789985
      904.91622297
      1274.76190239
      1769.71931135
      2278.10452291
      2790.26177666
      9761.00158176
      11332.88842936
      5451.72934841
      12780.30912922
      9434.98481219
      6952.63044642
      6961.39032562
      8155.49075826
      -63.22762816
      8316.84966469
      14368.01240928
      7981.68290293
      824.63069102
      6902.05986716
      8183.87965368
      4202.59804248
      12879.76828288
      2208.88056736
      5064.02882667
      6099.79085477
      3999.02846494
      2203.89382741
      3053.98532096
      10043.29989717
      7269.97029414
      1458.91864638
      1640.83189921
      6538.59723975
      7631.63549354
      7131.58820336
      3487.81672042
      5395.63428209
      8316.05221887
      4771.27232236
      8776.82417119
      6236.56606801
      5592.72310082
      3382.50724953
      7193.26810029
      4907.74788826
      5210.35601819
      4870.54931458
      2910.98323876
      6678.30335751
      6261.22098416
      3933.21147039
      2334.44664203
      3300.89150145
      4185.89131707
      2935.24454756
      3777.77496311
      2451.68682768
      2709.59053470
      3076.38863568
      3309.57063382
      2595.57900400
      4993.96143046
      2068.93733206
      723.03265787
      1874.55570976
      3609.41834886
      2165.12310275
      3634.88110317
      137.40159757
      -1138.87119592
      -263.77143296
      9258.26239647
      21255.63361652
      8708.98122335
      13290.31308608
      796.10941012
      20921.63461919
      -3725.03641364
      3107.55593183
      11362.37570144
      7006.25562017
      3126.03329541
      5557.96149270
      -2607.51686370
      10924.34042940
      9022.65206153
      -9225.86432563
      -1471.80790800
      13724.07058938
      8162.03712284
      7113.54956289
      5759.61632092
      7693.88269659
      -6274.84383457
      3454.79149458
      5800.79221474
      7758.70464520
      7807.31409603
      4661.33480995
      5302.38900972
      -2523.44682040
      10526.28716806
      11011.12698679
      5846.69702138
      5310.98015281
      5195.30514652
      8333.77433082
      -14.98543641
      6288.41331943
      7194.13623896
      2290.72076625
      6229.87002581
      5614.32561269
      1359.52928243
      4502.48244364
      7747.66171817
      7747.70622132
      1490.56560366
      2693.70322969
      5296.10664710
      4472.19766985
      2775.56778451
      3182.31919229
      2672.62391857
      3686.63183009
      4119.76297127
      3008.66908894
      3494.75350391
      3857.54050324
      508.82777723
      1946.05223345
      2460.32290573
      657.52155899
      2824.14269671
      67.84653771
      -1606.22848610
      1805.12310537
      6633.69519499
      8729.49495231
      7022.57914558
      6608.63696523
      -2053.99305926
      833.94994667
      -7050.79053051
      1036.45701345
      5608.65140404
      7263.12959724
      12224.72406206
      -3108.93140796
      -2749.85323901
      8413.27433984
      5177.16886908
      -2231.99758669
      1600.58763960
      -2446.22986966
      7446.56108389
      3350.85227664
      6538.57847037
      3208.83344766
      5307.89727897
      5261.89656795
      2251.09786476
      4584.12326309
      6000.01695340
      -2763.58574454
      6011.63698853
      3316.40508914
      3043.79294391
      6635.65719530
      1225.79221939
      10265.82836539
      3611.22635783
      3512.37888846
      8766.87124487
      3399.06164781
      2499.71776729
      2011.03695921
      5772.82894696
      7574.49167038
      4944.35703010
      2495.60420356
      4945.31731121
      6695.56147505
      1672.28887616
      250.83112617
      4858.37884114
      5542.43902021
      4563.35184232
      3993.15892431
      2493.85919273
      4520.50841900
      2106.39560113
      2989.43147749
      2604.92940139
      1641.05431475
      2604.71020436
      1562.28744468
      2535.62991739
      3184.04809850
      1862.40070279
      -1434.64859953
      447.00497630
      -508.64194598
      6665.74116507
      29107.54038554
      -3198.89262001
      -519.51423279
      5621.18122346
      4852.80031003
      27112.81214255
      -7777.28610689
      5557.50857368
      3611.93151780
      5721.80201258
      22300.96698765
      -1779.13666345
      3160.70864988
      7408.76777707
      -6963.28981158
      10597.81240818
      3217.13628717
      -4494.41946329
      13083.56740298
      -1228.35703808
      7370.45468756
      190.18139011
      -217.86502842
      7610.13776232
      721.30144015
      5489.30257324
      6822.00164369
      109.23559554
      949.35013603
      3777.63212711
      2617.24245688
      7151.41451597
      1256.83431862
      4593.06564200
      4028.79609483
      3894.11623749
      8131.33314259
      7398.23524059
      2364.05059659
      -1545.22410533
      3711.31673315
      10167.48113244
      6157.17230306
      -4.41455332
      4005.97281229
      3728.76927330
      1153.89674171
      867.31862606
      723.49485792
      7319.81272177
      2969.58619105
      564.43451142
      2739.05508387
      2789.28081298
      320.99953087
      3328.50156463
      5112.81096613
      2968.30769805
      659.91823836
      2200.59133253
      1849.26103542
      2721.39327639
      -3287.46193438
      296.17917662
      317.18022435
      8832.70540263
      6391.65783988
      6922.26521953
      9468.65230451
      9910.92153181
      -834.14106240
      348.44160376
      5831.55387703
      -3200.18197038
      -6257.84311821
      13483.57027202
      10995.73157531
      895.45838421
      6422.65907082
      8511.06606620
      -78.88523546
      1455.71394094
      7381.81223375
      5230.55361624
      2108.69529879
      2299.01189638
      1269.37433114
      -1746.09452078
      2286.72412288
      3392.85812694
      8552.61803793
      8244.73687633
      14921.66293285
      -2888.05658412
      5406.99755123
      5495.93657142
      734.58210175
      4100.72423514
      4682.23676110
      5463.67899955
      5327.44977879
      3958.38929606
      1715.11158880
      -1606.62361326
      -969.13024256
      4858.80449117
      5831.36503628
      3988.50639905
      6756.77100044
      5484.87973680
      2880.53297556
      6464.54684847
      1729.94081157
      880.30777891
      1336.93043687
      3445.23416626
      2859.67161322
      4344.11840637
      3344.40148601
      1255.75434489
      2056.26189033
      839.16095525
      74.92784912
      4846.40458306
      1055.68466809
      595.68354833
      5068.77994061
      205.83809594
      -1048.22053104
      926.22557918
      39.39963150
      4508.02934178
      8468.28147150
      16963.77274414
      20190.54111678
      5206.61254610
      2756.95724119
      1662.18239803
      -3584.33646507
      -4651.75688945
      -4974.48843858
      9260.78054279
      -1697.65418727
      1275.16867664
      12657.79800212
      18793.83571573
      7393.58192980
      5680.19785771
      -4330.45578731
      9267.81265387
      11582.20645412
      -2341.83871496
      4593.68166482
      4487.86059609
      4190.63009218
      2121.88184245
      642.90945401
      523.01683754
      1563.13579701
      345.54409891
      3462.06674884
      6686.40097926
      1815.79792661
      173.53266986
      2370.47704385
      11909.74763301
      3582.15221689
      2955.95749340
      3044.83674863
      986.70406522
      6410.97278846
      -5.07104871
      4428.47891960
      1594.77677691
      7548.91497649
      2486.55269648
      3925.32503667
      2607.88533156
      5947.62361407
      3465.70462826
      -420.23489007
      4953.81115712
      7007.97189023
      2638.90982213
      1392.25776325
      3681.54104857
      199.88152466
      2769.79592890
      3333.45639720
      1742.67243207
      2006.44295641
      -606.47609634
      1527.75069512
      3248.04776624
      -1144.19669173
      625.25637077
      971.65893554
      20612.82127068
      7756.92692778
      7801.38401619
      1269.75828279
      3820.17289743
      2168.77997723
      4253.04406095
      -3668.94262913
      -6615.87191672
      5073.29109520
      6410.61088493
      2325.01151437
      -4171.71351359
      2000.12888809
      -3047.94288617
      1948.63751857
      117.94920272
      3443.16389083
      2808.42851359
      6431.98533817
      152.50070300
      1205.84673307
      2477.88276407
      6098.15822100
      4737.10075133
      2266.50539219
      -1196.56494123
      6377.04930693
      1891.30851113
      -4032.44406072
      -4902.86901305
      8809.61874755
      2303.89394593
      -1263.99331607
      3281.35322758
      2881.59239455
      2429.59607094
      382.94396585
      1812.70425527
      1237.59871050
      -2396.58078296
      2093.72394072
      4634.80517964
      626.14209923
      3290.91977486
      3071.22964958
      4348.47248725
      3451.54273593
      3070.54076122
      153.42347984
      -149.30957953
      1912.22105670
      2308.51570176
      4989.92319590
      987.35191612
      -448.09311346
      1458.28689292
      2421.63516886
      4275.33328946
      3134.82493519
      -414.62554218
      5753.58786877
      131.12819459
      1957.36045874
      2471.19114182
      906.25869264
      3763.79014286
      -4404.61389482
      11604.55316498
      6058.01029368
      8458.38211515
      5602.47065854
      2097.70947477
      2553.94996310
      4165.18893389
      3285.27514195
      10884.62716804
      4483.46335760
      7681.52978673
      4010.73370555
      3701.82172151
      5817.75037746
      3305.45019623
      6005.84927753
      3202.13798102
      -3104.45167490
      5810.96340338
      3985.33278011
      -1749.43787648
      7495.79583162
      863.54157448
      6037.37217359
      -4856.72457499
      3417.99061956
      2612.84206747
      2987.60704183
      2764.66529211
      3411.88159812
      -6414.25450546
      -363.06731799
      2935.61813262
      4949.41479847
      -1014.12499646
      1286.82158286
      4354.62235414
      8188.77595036
      2983.58040459
      1319.44666684
      -1740.20806001
      -461.07174584
      3799.40443116
      841.52148482
      4615.12105310
      4446.64378751
      5628.76468801
      4274.10307562
      1288.53838349
      2163.85692311
      2626.33184056
      4154.56071942
      5996.44119012
      4821.13104924
      3128.62244429
      3469.54572643
      610.75751443
      -133.13194784
      -2823.11092455
      4638.98550349
      338.85047843
      731.56834400
      69.26512804
      536.37705201
      -6057.86015373
      9572.04369115
      1073.18870828
      2057.17436972
      6808.88025523
      7968.98570684
      1065.79195934
      2966.82376512
      -11498.98616653
      2129.39071488
      7246.20222896
      2485.87988900
      4789.28432649
      1145.56511253
      4144.20005140
      7407.58082883
      -3249.86076943
      2007.48713678
      -15240.77780146
      18103.25114868
      1294.79878645
      -7748.85735035
      -1420.20605886
      268.64313492
      3801.20027572
      1132.37047398
      1584.89212678
      7986.16387969
      7177.22342449
      4240.50883716
      1002.77790335
      2702.58326757
      -977.64737652
      -1856.66893901
      1082.93350876
      15.36618595
      3946.00017455
      4561.11673752
      3704.45411441
      548.12881476
      4088.52755466
      56.82420883
      2195.82460443
      -5626.06557474
      -447.34931080
      728.71280073
      574.96008099
      3695.12619325
      2262.50945697
      1903.21767221
      3455.24265165
      -3.37648584
      2536.54602688
      -687.46205861
      3081.25498974
      1394.50159610
      -641.44310285
      515.40108188
      2585.16673271
      -356.78383490
      585.12132589
      3454.01537189
      -1481.85487372
      -5157.11939993
      -642.73114241
      2556.31424971
      -19965.59071168
      7209.67437314
      2407.23641594
      3344.17426672
      2145.27756388
      8676.93193768
      7417.96157626
      3037.19080648
      935.14384563
      -1042.76593316
      -908.85317000
      -4914.30637310
      1311.44038981
      7971.90214134
      -1730.79253269
      1412.71162357
      10360.85606551
      -628.90172557
      1238.66720061
      -478.69653211
      1232.55857205
      3696.53089575
      5089.27970826
      -2211.60962826
      5535.51667047
      708.14670199
      2673.22665991
      4666.47028953
      2897.47214575
      2141.11995203
      5400.18326945
      -5773.07563064
      -223.23505302
      1624.51146315
      -2964.02021176
      -457.15101442
      6526.52389699
      5616.49397594
      2508.40082014
      980.17493686
      388.67440093
      1306.46518716
      1211.27076192
      3389.87239957
      242.61600931
      -88.23265253
      3474.72240864
      659.36155549
      1018.07569346
      1135.44720179
      1716.41947623
      910.95857079
      1115.56081454
      388.04483755
      1568.92786067
      4050.51791338
      6278.89542820
      -420.01871724
      -734.09810640
      1699.26952651
      2875.53319353
      4629.93254053
      63.06165367
      -534.78103226
      1610.41061945
      1638.50712736
      -20589.87664815
      -3646.18733231
      8479.05717831
      3745.25332176
      9243.70765166
      5519.08052809
      5025.52304050
      3440.62921640
      4132.88702114
      1702.00056628
      9106.11432479
      3962.20200530
      -11865.36513728
      12070.65913062
      -11859.16748569
      -757.58027144
      7406.30941154
      2131.91809096
      -5618.40473997
      5123.16661191
      2882.89003203
      3352.21766490
      7713.76154223
      1537.18438614
      1154.74991798
      2668.02831652
      2672.76996010
      4639.18343093