<?xml version="1.0"?>
<VTKFile type= "UnstructuredGrid"  version= "0.1"  byte_order= "BigEndian">
<UnstructuredGrid>
<Piece NumberOfPoints="5123" NumberOfCells="5123">
<PointData Scalars="Pressure" Vectors="Velocity">
<DataArray type="Float32" Name="Pressures" format="ascii">
      20386.53269795
      -20429.26212843
      9630.46572840
      -31366.89650186
      -25076.91863939
      -25862.18656260
      -20482.92742986
      53257.52116104
      51255.40872358
      -39902.14159381
      44382.38334840
      -25973.91773711
      -12731.48354478
      23554.98077214
      -23207.78953163
      21576.04121752
      34658.91676204
      29771.21545627
      43079.89964730
      -32740.13377281
      16971.63360356
      23770.26740398
      35578.03755636
      14152.55058669
      -21931.18779589
      26314.54002886
      21955.77196075
      -23264.34259858
      31088.41655718
      24810.91099629
      29893.20407999
      20745.21198198
      18272.54306010
      6911.50414864
      39674.00868899
      13208.66707197
      14965.09784896
      7192.69413332
      25162.58482656
      7885.56815263
      3373.94697426
      7389.46215189
      12684.40575335
      8798.37246886
      7995.75444383
      10077.86667282
      -2401.47477018
      2413.78379731
      9567.73597039
      8099.58581114
      1689.97474461
      -1256.02807945
      8134.77732117
      1049.42486702
      978.15723215
      2883.10646125
      -443.62478491
      1139.36100803
      800.79664921
      3065.58402736
      1760.33344580
      -670.64107890
      984.73843332
      10.19923918
      621.30205627
      101.95608309
      8279.23943192
      29838.06943700
      16504.84256877
      19692.80697479
      8464.92108047
      11031.67040084
      15895.07897450
      21603.52343505
      16283.27325624
      12902.03706083
      14405.07824358
      9696.65978514
      5962.64284604
      8213.98943389
      7820.60838751
      12428.85269951
      8585.60246854
      10130.80201337
      16129.40070194
      13338.95550391
      9540.06515805
      12792.02728213
      11694.31762789
      12541.84816718
      10114.05869561
      8213.98667739
      8169.18150456
      8059.38824241
      6926.32057836
      1121.08362619
      12209.12141293
      6620.00915616
      12880.86252992
      9575.63243790
      7918.89406089
      5498.08552110
      4672.96714638
      7791.85260699
      11339.77990406
      6256.47400253
      133.77085090
      8507.18541043
      884.37707975
      2845.64264901
      5898.12452068
      2191.56097871
      7861.76154484
      2474.80584525
      3923.01630346
      4667.35175107
      4033.42104751
      7411.22083547
      4694.59127816
      -476.92761522
      1711.31535384
      4817.01688675
      4560.40112867
      -3507.33452138
      2926.51463784
      -1755.28969729
      -682.56895947
      495.49638493
      -161.36308571
      -5903.23624547
      -2549.20003014
      -239.60755820
      244.21553858
      18924.35659668
      46377.70953022
      21566.09297834
      10369.50016336
      17744.49614997
      13781.55877038
      15932.86151562
      21048.16374510
      17841.79376441
      21937.60685673
      9921.12895900
      22885.17301632
      16517.62007566
      8622.89745085
      22478.95662335
      12548.42092007
      14127.28324188
      13475.76286925
      11898.15184131
      19268.64301275
      11002.89609751
      8597.02754264
      11263.09390819
      18361.36215101
      19820.72571500
      7286.51858001
      7755.58930594
      17722.61953351
      10663.34898167
      9336.98681842
      9402.59721791
      12010.42650823
      5925.08660805
      13559.49865733
      19899.28620691
      8376.19543704
      4544.29312689
      7380.24238931
      7883.98846548
      4408.58204568
      8128.01892440
      4505.23921218
      7921.41778159
      -818.68809795
      12088.10070708
      2246.36973617
      1807.61176908
      12720.89588422
      1592.98819681
      3789.64596329
      9236.81308523
      -118.97154706
      978.20179009
      -851.90526614
      2614.77262234
      -1224.83729811
      -322.42126067
      1286.29408383
      4809.03608668
      42.75406109
      -435.71324296
      2323.94849294
      1044.89858436
      -2210.15628426
      722.02301789
      12245.25008270
      16869.67257957
      54955.35464739
      37209.25760979
      22520.56551977
      17086.35167425
      18225.51372429
      17423.43172435
      32734.78222821
      11493.57028682
      19035.23362459
      21580.76494965
      14289.44108757
      22320.26167897
      29907.07757196
      6012.14757800
      18740.31117006
      21612.82569491
      9610.40297146
      16775.95545577
      21112.81573227
      7606.37518675
      21702.27819447
      11762.10476407
      4814.86418140
      19450.62944783
      14092.56828637
      5270.28705019
      13635.86487610
      6109.62084759
      8939.92609816
      13076.33903807
      10760.48268149
      13889.62902556
      7470.51304780
      6097.71887831
      18689.56770369
      12247.67864393
      3043.31914265
      10672.60742459
      1810.57675783
      9751.82339587
      8104.00769815
      8815.57919516
      4561.75853850
      15977.86692329
      6988.77928473
      4294.02461324
      6883.76111089
      6066.26646154
      4870.23036628
      4486.72041833
      -284.38095879
      4815.80487330
      3079.61548918
      4917.87835860
      4194.75915585
      3928.65381191
      4578.53593051
      752.45058669
      149.43207194
      3971.70191597
      926.98066159
      1306.51979827
      1637.07733684
      836.49110858
      27276.89200243
      13697.53468897
      38020.04241040
      27503.51490759
      21310.39484178
      16447.86074740
      10402.41738158
      21107.65897391
      43319.28070108
      22919.02104047
      11712.95572714
      13260.92434084
      9571.69574658
      12492.17629294
      31829.22475414
      16359.26870336
      4260.16891752
      17624.94147684
      8031.26525782
      20047.30792504
      25349.34758618
      2652.03626423
      22511.45180772
      30786.72675825
      -1308.92762628
      28845.53022197
      29559.93708742
      2041.50446406
      15344.86712008
      5604.59014649
      14723.56636784
      16292.95447438
      12955.73043420
      12742.91784577
      13857.23937342
      -806.49306743
      17806.69202729
      11045.74562242
      814.83563688
      13515.91368999
      10980.27960150
      8309.78709402
      5616.85879527
      11881.34940772
      10512.05663442
      8003.70220654
      11775.41055785
      8911.58286358
      2571.16647569
      10246.92268519
      7301.39283660
      2482.63406223
      5948.73385682
      8589.69397728
      -3190.58627583
      9181.09308392
      7042.20429991
      -511.69731076
      5875.36024065
      2904.84188659
      2007.68505437
      2564.59743010
      691.13533202
      -212.88599561
      728.57123945
      649.78603392
      -13418.93321085
      10473.63980872
      13081.37769710
      38753.68596833
      19279.52709615
      10312.32342505
      19562.36909276
      29790.18045302
      26925.97571060
      18849.18435136
      8095.80095746
      17139.78883233
      19350.84238679
      8766.29697072
      14277.52419380
      14372.94150397
      16683.59316057
      12262.48250124
      5784.35874646
      32186.83540294
      21121.02592733
      8677.49823050
      15517.36462107
      20419.87070524
      7795.98749669
      13179.70182605
      16775.02657958
      18916.25804858
      14248.97146581
      6682.02872051
      15919.12521844
      20664.74799136
      9820.07372645
      11349.06615745
      15201.25962617
      8586.69213875
      11096.52761756
      9505.05592822
      10648.79671169
      9048.60562803
      6998.62298840
      14681.43434353
      7868.75195440
      8213.42802183
      10992.64596243
      3284.10951271
      5983.61384563
      11763.59445191
      2872.92576931
      7809.63816792
      9238.75676962
      1740.80327219
      3452.54362807
      4530.56102770
      1798.43599468
      1845.85935391
      2477.77535183
      1083.87643294
      4915.47450809
      1756.90801550
      -490.03027275
      119.59252061
      1746.56849244
      2658.60528023
      -35.90690945
      487.61993462
      36375.33087452
      17413.36871930
      30353.51222052
      13921.74884095
      17484.28209525
      17872.16173484
      19138.84522252
      37718.14662741
      9759.19303785
      9434.00717623
      12462.74865438
      11379.22979939
      23447.02682564
      18872.19224637
      17685.17704089
      16870.27751819
      19839.02597904
      11126.36430779
      10933.40603179
      22142.83673445
      18017.08481053
      3768.76451494
      11283.94063026
      24983.44633437
      8023.40654591
      23025.55730901
      7686.42730765
      14574.42307448
      22392.77614738
      13282.13959847
      17827.85072314
      20587.76957736
      5941.49993266
      12326.12134158
      18633.92632690
      13590.77265314
      11725.15223244
      11185.21998933
      14335.08423338
      6729.94405531
      9498.91811107
      11321.33411560
      8644.95961762
      7961.08071853
      9243.04876756
      10474.96673785
      4963.16564090
      6865.66307195
      9614.02561697
      2292.02031098
      5338.59838088
      5420.97155171
      2014.88637296
      5868.34400153
      4264.13374533
      3631.11246614
      5334.40878244
      3045.57333826
      1637.93732627
      1904.64176962
      2104.63711790
      852.70472861
      1750.79949643
      1263.73550558
      -349.87022464
      -84.56202799
      -3454.78987670
      39032.42200176
      21189.64746176
      9053.20535234
      13103.74854921
      13252.96554244
      24973.56992788
      13153.94756073
      877.80900049
      17749.34353575
      28661.98532271
      17800.92476413
      15381.04067547
      13766.18059229
      19726.12344655
      22100.22307420
      23006.49212022
      15720.61887341
      6642.18134571
      19431.83703299
      19809.80966002
      9315.92106915
      11801.50958329
      28435.73667261
      22453.90121270
      12547.37571495
      4169.83589756
      22173.24085281
      26102.74613199
      7904.07746846
      15910.79396928
      17278.28588264
      11675.88757539
      10008.72255331
      13483.18260520
      16329.91407873
      9502.69254327
      12836.93374530
      14771.18750089
      3510.72975749
      8154.84003985
      12407.88267477
      7714.40764300
      4962.26403557
      6657.58100542
      7583.28589089
      2955.05826873
      7086.00604311
      7848.85153199
      4511.90731940
      7655.61828314
      6425.66102953
      2905.71510438
      5703.83098166
      4492.85583579
      2418.51820530
      4389.53905641
      3915.64549009
      2671.83429054
      1664.82586655
      -38.94713442
      1718.87302131
      293.54421387
      1029.30448787
      370.31277004
      -447.51732113
      -11794.05063477
      17848.37163315
      14366.86739376
      24482.81238549
      32613.29469112
      4921.59797922
      9489.42866295
      28251.49693415
      27587.14058997
      21193.84039074
      20725.97830204
      32037.03134872
      17943.57323886
      2706.32297984
      21053.27516771
      11579.68448922
      27185.08986577
      19074.12225433
      7761.21059504
      23478.21698755
      12760.04608704
      8251.95127509
      16832.64522868
      9547.54776052
      12706.04995522
      17063.84062922
      12490.81771598
      18535.61108283
      25355.11829401
      10515.89447256
      12069.81845143
      21868.49809211
      12800.46601283
      11161.25880698
      14022.57558361
      14657.96738127
      9082.11656304
      10221.75875733
      15637.49244370
      14770.74764410
      8733.52367539
      8510.64335340
      12713.45672280
      5585.57026794
      2851.96288096
      8487.57818731
      6872.65498686
      4341.82341963
      6552.11661244
      5178.31010997
      7838.87715896
      8999.91343769
      2850.72452524
      6263.60330963
      4304.88766786
      2608.36021414
      4648.02860463
      1588.24237232
      3305.57269246
      3449.33390933
      -1252.20178256
      1317.15443365
      1012.01853116
      1703.33684576
      711.76788370
      -765.21748334
      14209.24348609
      34474.17738567
      36940.27344686
      15526.44188890
      25867.41131003
      12152.75576454
      9492.50072976
      20975.61688790
      30452.98328860
      19077.44214860
      12708.57417931
      28015.16369612
      28092.64778091
      13590.35737130
      27037.40887214
      22156.35855083
      6235.62751910
      21297.33285831
      7627.22031713
      24370.48941551
      24832.91917678
      1706.16197480
      18728.49804834
      13857.00549469
      8306.04865944
      17000.83352350
      11090.43521128
      17934.20528409
      21514.52927140
      7773.85105825
      18457.37974891
      17660.38275705
      17953.93226108
      10759.34817413
      12954.21630224
      15784.52707638
      8662.71374717
      7631.47468165
      14408.40699974
      16486.17274471
      5670.41190746
      5448.15969044
      6480.31102352
      7394.92665493
      10780.23413709
      8152.49482048
      2731.91607968
      12058.14334637
      8364.22829289
      2443.13241885
      10738.41821920
      7900.66914073
      544.75093313
      6971.93794069
      4469.25026266
      911.18102919
      5209.74116731
      4127.52839261
      87.69574832
      2883.67160008
      649.49129422
      372.20853072
      696.72940422
      842.95390510
      -772.30047392
      -187.95275420
      -34365.90842924
      40985.47479765
      29843.41855249
      9566.06690311
      17324.06000884
      12386.85006290
      14239.83115295
      21805.53214454
      20923.14559846
      20530.58885447
      7231.51966187
      22271.08465732
      17440.87040242
      14358.01490258
      15129.65614522
      19884.91948199
      17271.86419803
      18352.41918336
      20602.24884523
      26238.86272320
      23479.73289752
      17264.77486868
      12369.99137679
      15416.88924445
      19080.45143013
      9787.80090538
      10250.35154078
      15599.64575428
      20570.77777893
      5112.11450503
      9856.95928878
      19485.98851735
      11649.19262595
      6506.65141845
      9765.71970986
      17303.82590530
      14563.53003828
      12825.70688821
      13336.75048332
      10421.56106064
      7106.49734562
      11785.68201027
      9380.89316780
      6597.49196928
      11314.49559933
      13755.82997596
      4846.67405354
      6321.19522452
      10233.02373300
      3727.52273124
      5932.17868234
      6570.45585867
      2026.36109730
      5385.67642727
      5439.40434930
      194.05050868
      3755.56535773
      2706.01551269
      1830.09526559
      3308.41220979
      1673.35218346
      424.27182438
      865.58202014
      1178.91741573
      236.34320367
      163.51589629
      16941.61648151
      13734.84012373
      15031.60768499
      40495.65456064
      40618.21373656
      4721.94475717
      25086.60871315
      24980.80238915
      29286.49054493
      8286.56563676
      14771.83748022
      31781.36189449
      19149.32989796
      3910.65225985
      26980.89658043
      27301.49477146
      11736.66452290
      21928.83671598
      12545.62808909
      22108.92619596
      25236.74468500
      9863.93473550
      27821.17594325
      18767.53593664
      11563.48365960
      18412.46083206
      15735.67565289
      16777.19132639
      22623.05816608
      15233.90662447
      14849.26687191
      26838.43509047
      23511.70773756
      6780.87390813
      7839.71878805
      15742.93558776
      12788.02985610
      3106.16444469
      9808.09029135
      9158.47430835
      7350.14852408
      12514.41588908
      8164.49423672
      6962.61200084
      10565.39286011
      6412.26242016
      3057.22093371
      10748.12536933
      6949.67169615
      3902.61228579
      9222.36017249
      5318.23976777
      1896.77249268
      3795.61598837
      3707.52860000
      1676.33654380
      660.90827916
      1317.70423356
      2347.73714072
      4165.78651064
      1266.00229350
      1420.74750282
      897.72626095
      118.97333591
      848.32092107
      581.81279839
      12631.33664321
      43049.49587514
      37276.81712458
      20439.07328505
      10191.29707047
      13004.20947071
      31242.87037510
      25521.05890729
      9352.31378615
      5581.78410857
      12540.94327007
      19266.39489451
      22008.86529701
      6945.18612136
      8961.01333197
      19969.97106280
      25613.85529048
      15112.36859895
      11056.17579674
      8498.28862255
      18628.88970223
      12079.40450714
      12998.79318851
      19662.93013733
      17279.84123067
      16868.02824057
      14492.69560785
      11709.33783224
      19203.20741998
      9081.77657945
      5736.31966677
      17336.49577351
      13793.94568759
      10706.09584605
      13559.44780077
      8429.63423141
      9945.43052374
      9580.02144583
      11659.22711115
      9759.61130871
      6240.61756714
      9647.21365155
      13307.90298769
      3830.02592536
      7907.96198850
      11922.64681966
      2434.17555280
      7219.63738570
      9610.53547295
      -1072.47437381
      5090.72745033
      6422.01729301
      1897.89837276
      7949.14168865
      3581.30917332
      1012.44128580
      5410.02462629
      4550.97145379
      792.35391493
      3764.14079384
      1991.09598660
      -220.33205948
      1282.51245722
      -324.08022679
      641.87062172
      532.64863389
      -23232.83787977
      14763.17418924
      9820.88161724
      35154.34143255
      36598.65263203
      11710.22568343
      13843.88564882
      13241.78206486
      14439.62618367
      18986.94448230
      13601.19095901
      28579.88755723
      15017.37615034
      7716.46145613
      16243.13568421
      19431.15299921
      33614.39825744
      18876.30668641
      12846.17382172
      16105.48412185
      26644.24072458
      19517.34736747
      7573.22467932
      15401.37821364
      19777.67761381
      12971.14075083
      13076.02498319
      7245.53742772
      18271.17543169
      14096.16290963
      8192.73054851
      10447.74402866
      9093.70853881
      5186.21372793
      11672.73513721
      11248.00956621
      10417.59521449
      10262.92005089
      13570.03522658
      10923.13226482
      5607.10773842
      5552.68473909
      12265.02522494
      10558.54370375
      6093.79635125
      7596.71661742
      8677.40264423
      5140.67935616
      6827.01304516
      9196.62237037
      507.26689712
      4143.23007651
      2930.44683142
      6142.56328895
      7259.62566949
      -103.63696040
      1332.28518305
      3342.70448692
      1579.31562286
      3495.43533309
      2265.83734151
      538.04960803
      985.87974988
      724.58195444
      619.38243979
      638.00210839
      27851.22903359
      14947.41900392
      15825.49070228
      15391.52557909
      22614.01780313
      10993.45510583
      11234.88185279
      15695.18016901
      15460.40040209
      16223.20003692
      13905.78460967
      35351.49044167
      25102.64364195
      6058.09231256
      20341.91018577
      18049.52352099
      17347.27363039
      15276.18674742
      6827.83982331
      16693.68951780
      23980.22700858
      14390.86878994
      12439.11422912
      15830.30126666
      23251.90788662
      20622.62773643
      9095.36661438
      14201.57207146
      21668.29028207
      17933.33824083
      14527.42995531
      13137.88599143
      18750.26470985
      7652.29807717
      12408.15416053
      16434.73504262
      14639.95108730
      2898.75451695
      8911.67375493
      13348.76743315
      6005.99677890
      10226.75170515
      11982.04944874
      7731.19976096
      5690.24381983
      9784.79968507
      8694.83428429
      4698.09961117
      7006.43815773
      5438.26017461
      6047.11777868
      7329.80841213
      4932.44508398
      2348.35918467
      5120.10203502
      4079.31310653
      3828.57221769
      2782.72842571
      -182.67618559
      1234.78904825
      88.22500629
      2191.50483523
      827.72668727
      737.95299397
      -452.66863448
      157.44209942
      -18919.92233885
      21920.97297292
      5985.40033871
      14115.10004953
      21317.13077433
      14293.19765068
      22866.13365240
      12346.67216162
      8444.07309216
      9742.40379042
      13118.81415153
      18736.24550737
      24048.27225817
      15343.31281532
      16741.32990047
      12130.96129223
      14099.98235358
      20960.76439834
      16670.13789918
      11344.50905499
      25105.19047965
      22280.27677264
      13044.82481842
      11974.91242992
      16414.42263782
      11660.90439909
      9208.12153111
      20865.26198639
      20570.93634804
      10318.52433645
      3377.75099974
      8745.69792742
      20170.29224670
      15259.46400972
      9446.05461443
      13405.70980520
      15394.85467612
      6433.24156270
      7225.15099188
      9282.96233112
      3910.28149332
      11619.88310535
      13457.78586319
      10461.93942648
      7182.77670452
      10626.13800228
      12142.07445903
      4390.65862735
      3415.44455866
      4531.33424446
      3753.27051946
      8146.14004866
      6327.60089488
      3212.72964318
      1993.85727526
      148.07050133
      3971.96667957
      4080.30716026
      1187.50391740
      5629.22797116
      2448.02719627
      380.38701945
      1135.69568149
      -119.68432917
      693.11920323
      -614.49775313
      32077.65769574
      7445.80879311
      6551.28196700
      24401.32121385
      29812.88928907
      25579.65841873
      18727.40178738
      16992.16661968
      36983.54936438
      20644.23855564
      -255.36666427
      8673.60706531
      15360.14762790
      33855.96548519
      18036.57521412
      18957.90757434
      22849.81732667
      19243.49882189
      18123.19806398
      21473.83401803
      19542.35649342
      19426.50259963
      18538.07440242
      9226.74829985
      11620.00066524
      19034.24500525
      25925.17277221
      15039.61447829
      6827.75740434
      24331.37495067
      11509.73965366
      12777.89058247
      21800.49447030
      15269.89741436
      16935.03299135
      18588.50495461
      12648.14396322
      13515.53570698
      12200.15618960
      14203.96364248
      16191.68080686
      602.60684073
      7786.68192114
      14858.11951663
      3106.99903336
      4562.49621588
      8794.58011528
      3542.69816136
      8989.64682359
      7530.61109249
      2167.93053409
      10524.44343900
      6454.80943859
      1862.15193872
      4889.60358715
      5176.38324485
      -368.49042429
      1784.58881684
      1089.86422360
      3736.58066229
      3383.74696399
      1247.40627910
      690.35369612
      646.59129588
      353.61502911
      75.94624260
      11315.37593975
      12611.33352683
      9803.17543249
      13590.41941713
      14226.75739932
      13864.11237125
      23461.61185571
      5800.26041954
      24014.33937263
      14299.54612102
      9497.69882638
      20244.99056891
      15638.00358806
      21946.35211175
      15431.77641539
      5688.75043998
      26338.84649365
      16007.95160701
      10568.38859427
      6743.10850027
      12760.52941644
      24121.15437745
      14962.01166867
      6302.13137358
      13055.60599085
      14997.40912333
      20379.42670964
      4109.99756559
      12193.44156848
      23923.46328983
      14336.39896565
      6611.51089962
      18763.31511680
      18587.24385601
      13880.93690717
      16222.64342996
      12120.58159234
      7070.86424368
      7073.26795701
      8499.32511171
      10178.04918864
      7497.57754938
      14877.33066230
      9062.61373234
      2906.46553043
      9192.43490867
      6290.10374291
      3255.39327224
      7810.06321642
      9507.17243158
      1426.81112013
      5789.69100903
      8996.32393114
      4325.85743793
      5601.50322175
      4078.88576266
      2280.69346276
      5231.51653433
      4088.94482450
      2150.96474290
      1702.83032143
      1195.34262588
      710.95484725
      429.15110766
      180.48420594
      -342.47079461
      -5348.02022649
      45074.94526558
      8113.21550239
      7304.65329901
      18508.81549554
      -2757.56752497
      -2154.03247630
      18465.17332122
      14502.59216672
      14476.56253364
      7168.02301448
      13729.50986446
      17489.46279086
      9754.61198220
      4592.90745854
      14863.15559062
      10921.32644126
      18548.19537337
      14110.55268161
      7196.97505301
      10092.40407190
      11719.73386089
      13818.76912430
      7415.07781504
      9646.97603224
      16680.80716266
      13856.55765444
      13063.37975670
      16786.94167444
      19529.74410134
      23999.01420954
      5381.37102173
      5693.41722225
      7808.33829445
      2997.42871161
      13827.88681021
      15885.61702707
      9900.38791110
      6725.60144948
      5576.96446031
      8132.38772866
      3676.78739764
      9279.98001604
      9440.95164045
      2522.14208088
      7536.27910330
      10293.35589771
      6931.26212332
      5826.80276390
      5161.59823168
      5398.13928594
      4690.31917504
      3347.58534835
      5199.20543929
      3730.49436305
      3236.32572472
      2834.08073848
      3053.13810730
      1055.11680486
      2926.15024789
      2513.52876522
      2145.88341642
      743.96032957
      -621.16190129
      1361.16142080
      -609.05138387
      12984.48533522
      13275.11289913
      12535.73058406
      15646.07393261
      44855.72257611
      10319.39057473
      21856.69631780
      23301.33461716
      7860.62001317
      8766.38151881
      13359.70316142
      18430.03622265
      22478.01968691
      4061.56894506
      22002.22851182
      15029.38470271
      11358.46008235
      23022.27664659
      20196.93267871
      11239.37788631
      14751.39175559
      14667.55073582
      13797.68283039
      11496.55401623
      5464.64745118
      16440.57649783
      18858.39459637
      2638.23774611
      6939.35505317
      17855.93820593
      7437.98280108
      10582.06592395
      8200.92178939
      17503.65403501
      15540.28659525
      4999.82063831
      12994.46413330
      8315.70514367
      3896.12034622
      10595.21782779
      13832.00611026
      10548.42469458
      8948.08071569
      16168.31927544
      10971.30184502
      6802.28373278
      6669.82634749
      5952.26164993
      4418.48641518
      5489.00206341
      5033.11444798
      7625.02072088
      4666.24082172
      4840.12234472
      5125.92651608
      4945.13757622
      2382.46690427
      5384.35369712
      3931.06010868
      163.00538312
      1163.01021596
      776.57237283
      2018.17824043
      -56.51811499
      566.79249566
      502.12955612
      28819.52675402
      11658.14139253
      12828.72724389
      16376.18153907
      26898.95723056
      14524.87398781
      -1258.05011655
      11547.69913363
      10065.44548610
      13747.44296192
      18979.09732797
      -3414.75083457
      2933.82485608
      15379.45591725
      19448.10434269
      9416.95033489
      5661.67108363
      17186.90057296
      21036.51885562
      6897.72469508
      13863.08997456
      9051.65731094
      6353.29859155
      8057.75133923
      9598.82996995
      10768.41606831
      4948.90437477
      12971.43262171
      9184.95064807
      8434.72089605
      14894.94499694
      14121.66020531
      8002.41612256
      15493.85984341
      9199.51078289
      5336.00795491
      7593.12567222
      18138.02279550
      10905.74921549
      3210.12430697
      8251.03494762
      13727.62378589
      4546.82257681
      3619.14982074
      9900.07892591
      11437.89975904
      7410.27156590
      9357.17953825
      7370.92728622
      6951.89309036
      7272.99076982
      3932.95760227
      5482.08435606
      4307.95162866
      5425.10986447
      3112.32571037
      -1312.92846682
      3286.34637280
      3299.19297602
      1898.92714268
      5005.72800226
      2954.90905663
      -76.82647622
      667.85445753
      -141.13243462
      427.59227377
      -35814.72999464
      9124.11235930
      227.14241236
      19260.09548341
      30070.37231808
      974.05579276
      10746.99444301
      11525.00425875
      22655.36642310
      10626.67717941
      11016.49347679
      943.09142046
      17169.99883571
      15456.74639490
      12974.07191407
      16993.27328421
      16998.27727371
      24181.95473836
      11646.55749936
      11861.53614912
      4552.83511666
      9065.78385849
      9300.84990107
      14466.22240837
      18183.62476948
      7267.03514340
      7310.18011352
      10779.52433687
      12492.75742779
      3616.60596268
      14466.79677961
      7224.21016840
      8617.50755573
      7675.68453947
      6190.22625936
      5530.77892989
      9043.06628007
      12613.43410788
      11513.86899807
      11246.28049507
      9059.08111542
      10762.51218055
      5606.29279585
      9370.17901865
      4939.94394994
      1752.79958930
      5986.91008460
      8491.29768501
      3263.21952984
      6215.83478699
      4283.39539862
      2059.38594011
      5226.51717041
      6414.37105018
      -296.95320552
      5996.17223227
      3318.21081862
      835.43352915
      2702.36459810
      1321.64428806
      2122.49430633
      2602.81273882
      34.57428762
      907.26446723
      386.07615734
      234.21834090
      -11115.14916057