<?xml version="1.0"?>
<VTKFile type= "UnstructuredGrid"  version= "0.1"  byte_order= "BigEndian">
<UnstructuredGrid>
<Piece NumberOfPoints="5123" NumberOfCells="5123">
<PointData Scalars="Pressure" Vectors="Velocity">
<DataArray type="Float32" Name="Pressures" format="ascii">
      -75457.83911947
      -25825.06171842
      -36678.44476718
      -35561.77368429
      -25076.91863939
      -21627.62522869
      -20482.92742986
      57875.42160653
      78038.27737876
      -37979.07088609
      -29939.87185995
      -24929.46055353
      -22367.78647098
      24471.93410652
      -23020.45150876
      23105.47278698
      32067.87758449
      35265.58844442
      21208.35563091
      -16978.95705950
      7628.59444900
      31145.03493331
      47841.53372376
      32021.99032813
      -18189.33012299
      13278.07601704
      27210.14248829
      -19167.53099727
      12067.43445204
      32689.97430522
      20072.95642461
      18980.80689704
      28257.22421935
      14609.95322871
      30276.14961074
      5187.04580022
      8928.74525629
      7242.77618957
      20233.33858585
      15117.93587365
      296.13935103
      15217.99603075
      12724.78436953
      9352.71162899
      4015.44627543
      8084.58645306
      6786.35574004
      7021.44136845
      1047.46537781
      6919.63594338
      3280.76103334
      -394.16589024
      8627.30321344
      8239.02563057
      5073.25426342
      1014.46712200
      -3943.88399646
      3629.61930113
      1443.04958730
      -1930.83622593
      -1639.24066089
      -2082.26906266
      685.51462357
      -1820.03655530
      -1791.66536177
      -192.96831048
      5456.46329923
      26182.10828855
      17598.48861832
      25543.18727887
      13504.32445772
      5789.30817243
      5629.18540779
      26198.70459070
      15383.40786788
      18739.33808369
      12905.97919414
      8003.69184378
      10318.08993737
      12618.54231820
      6464.37483547
      17177.94812921
      13320.86960096
      12051.69822881
      15590.26382699
      11245.40455136
      9833.73817281
      1994.21452327
      4042.20190539
      9021.71622534
      7956.12103775
      9754.07737858
      13372.34968886
      13428.56897915
      8795.13173954
      3308.08559078
      9543.24431083
      8055.65106580
      6985.52059526
      10362.62771459
      14467.05062180
      6419.59343980
      8430.19431381
      7952.21059707
      11688.25988115
      10056.88567744
      9663.88089431
      4148.96612538
      274.41374458
      3521.36163305
      6912.56904921
      5047.31195355
      10238.74552809
      634.45824390
      4563.75738189
      3558.67793918
      5498.01964522
      6621.59444867
      6028.62487660
      1326.47313613
      -1781.56847124
      -1281.58648034
      2193.77421461
      -1595.10539691
      -505.16535982
      431.58280855
      522.30632654
      2122.11382979
      2408.49627888
      -3900.83947521
      1236.00856491
      817.49655457
      16436.80065866
      24153.44726725
      75461.42482653
      35196.17004726
      18111.82373600
      22111.55509655
      13258.46742152
      4035.87527651
      22120.22416488
      25537.04270993
      16552.95158846
      11387.14049241
      18695.57712566
      19796.42600891
      17199.27928172
      23288.57690944
      7075.04098997
      19344.37259554
      22665.67218758
      10290.54190841
      6921.29989151
      25218.95231195
      18341.06658777
      13886.58420379
      8800.53396718
      14170.06715548
      10215.09142895
      14514.28751109
      7827.79780577
      15579.91120265
      14421.92975350
      9028.98683902
      8519.49966524
      12162.22216036
      12517.53252873
      5705.36246864
      6652.64132743
      14921.30397040
      13393.33947256
      10192.78839171
      15170.50357209
      17525.53987733
      9916.21286415
      7315.65186363
      12883.48090915
      6326.04486771
      5080.57574849
      9455.82143016
      7397.82258880
      5926.63317963
      3925.19557368
      6758.70842364
      2523.62531770
      4286.33577894
      7847.55463210
      1810.37230783
      1118.41886447
      -464.67813364
      -2046.17506354
      243.97597345
      4876.70154795
      -427.14276118
      2146.23910545
      -356.47857963
      1838.28634453
      1446.27950645
      4694.08524052
      20421.87018788
      28714.30397079
      20482.37213206
      21796.13602373
      14669.31898907
      29040.80182151
      8234.22146524
      20729.20638390
      34106.06171424
      28562.58115461
      29652.06892025
      11371.60109449
      11787.98113164
      30063.39043555
      16321.60242597
      29299.09486976
      19427.64356268
      10299.93836072
      22794.79660997
      18030.74933155
      3769.11411839
      18536.57180528
      25733.25879994
      5559.17144848
      16373.86762981
      12020.72187459
      8628.06971423
      10036.00974131
      9329.09221599
      14443.85135481
      17550.93863770
      8045.94186458
      5868.98022958
      7646.81853830
      8258.70628994
      8669.61839085
      15027.31231443
      11470.73777899
      12270.49766225
      9155.34363617
      9992.39414529
      6831.74887111
      2938.41139493
      7090.50904219
      15403.62532401
      5216.58265560
      5162.45065804
      6101.28620720
      4177.33225997
      2633.88091274
      7679.13337305
      6929.24504838
      4913.21838696
      1803.40665515
      4710.07800992
      4866.01088169
      504.89621525
      4157.72466614
      3870.98295465
      1625.10821901
      3241.42349778
      126.64333517
      2745.36117020
      1248.82018622
      921.02911017
      22865.75019647
      24203.32108758
      80083.72360424
      33911.51059730
      25234.86957465
      15997.74624087
      12823.06715706
      38067.85129527
      59736.58909072
      31282.16436723
      21963.94104256
      21291.57070289
      17082.14160245
      18316.62344173
      30139.49350098
      14464.75273521
      14279.00064807
      18274.61357460
      11641.56341032
      9236.43989941
      28568.12690502
      9925.00094697
      12413.20177390
      25083.90181680
      13222.93237756
      25742.99838640
      21176.82943181
      7209.60279404
      20828.61517539
      12315.95822085
      10344.98298162
      18367.99080527
      17293.55960268
      12156.02101500
      10645.43117542
      10464.27525781
      27328.71843591
      15240.74736928
      8147.29975285
      16692.96096342
      10139.30166493
      4698.38229859
      9804.94152605
      11392.20370556
      8936.76703033
      11545.16049377
      8717.21866402
      6156.83239087
      6469.95913470
      7440.70433802
      7812.67241500
      4119.97459078
      7694.15105939
      9144.18044090
      -1572.38546487
      11760.73855032
      6663.48429438
      2663.84303441
      6735.11510536
      1903.27422126
      -1305.99393188
      2183.56305593
      1464.30300160
      1557.22434618
      249.70715148
      -527.14620545
      -24488.81319524
      -1214.11666829
      16201.49081047
      44896.81901728
      16204.60814915
      -3669.15377423
      12253.18728788
      27579.08980049
      6485.42573823
      45553.84444457
      20511.61519806
      7696.46433010
      17240.88663611
      23427.87448866
      15503.47631011
      22489.52045499
      18886.15654478
      4521.02456814
      6546.82668852
      15336.99137966
      36120.08975132
      16881.42323348
      6436.48522746
      15956.89289388
      33700.92624356
      24731.20961492
      10532.10610768
      14487.26221384
      19428.39027627
      13427.50999112
      10841.72849088
      9526.58004549
      12663.80124320
      25533.81435811
      10695.44844174
      8974.18672440
      13840.86350382
      14683.76646823
      9528.67658482
      15060.24723872
      18084.37739085
      11538.62641149
      8524.19431747
      11858.83923621
      13833.80474783
      9530.17986453
      7429.83778167
      13225.62515312
      8379.45760174
      9432.84267972
      10263.79890197
      1719.89780096
      7382.87612715
      7296.12953432
      226.74188842
      6454.90425926
      3878.52711124
      -857.35893004
      1658.96882732
      2142.65206156
      2335.14603457
      2227.25320944
      452.94318651
      917.17632446
      334.98354794
      552.51165178
      -20232.75609426
      42907.41410562
      20446.28393013
      4742.94703089
      55832.42640222
      26948.77198190
      16646.29974637
      24318.00914895
      19071.04421800
      15288.95271200
      10020.65545247
      19292.68487893
      33352.97055024
      14097.03675364
      14971.74530755
      18549.35664603
      34301.25000895
      7239.27138188
      9644.03897320
      28347.00855947
      21672.07781673
      24139.06719100
      10712.56270885
      14462.23063361
      10341.38678555
      17862.97099244
      21897.22914892
      17315.86237071
      13529.96110466
      20792.55544952
      17509.05356142
      10998.06067126
      12409.77560486
      20226.31957907
      14250.80040148
      6234.93705410
      11395.20248571
      15263.36155367
      10186.89221477
      11827.76590997
      15341.77192408
      11989.83936767
      8158.13221638
      9698.90047806
      11576.53630525
      10456.30696196
      6683.25698382
      12366.06216838
      11762.28812902
      4344.37991855
      12120.95763405
      10175.29427696
      2325.79184417
      10737.46521743
      6782.62734211
      1460.10628386
      3190.02712120
      2058.66845278
      3964.72604336
      2246.66151197
      1746.78708400
      1126.68276924
      1190.48503180
      146.62956195
      276.19037979
      187.90741438
      -4941.46405412
      16255.05634157
      20030.26486018
      -8496.57671158
      -44461.91003611
      -30344.88045555
      -9286.92673020
      17030.14598088
      -216.60483801
      34655.11004817
      23239.12872567
      10742.16267293
      25180.14639219
      23891.86284263
      16658.68953940
      14135.90925176
      25912.67436823
      25122.22728161
      7495.44799331
      11549.82536037
      24006.90749462
      20442.88435635
      22983.99903907
      24160.37308795
      15325.44454861
      21017.25139215
      16249.94113629
      13314.20335292
      14091.82176868
      10373.35713274
      15451.57961788
      14341.76989232
      16002.86844538
      14866.63064206
      17199.67492475
      7963.74989673
      12507.13269308
      20285.71823965
      18601.99790882
      9934.15712460
      10062.51034592
      14728.53628124
      9229.00901424
      8283.56075523
      14100.36255682
      15236.83561766
      6851.94335192
      10360.09633410
      12009.41294543
      4714.87533298
      5900.55489128
      9226.62849539
      3333.67309844
      6674.07022775
      5038.53178878
      2799.95400887
      7456.32929847
      4184.54928147
      1422.62647312
      1499.99404956
      715.56499604
      2059.41121450
      1431.12027356
      -146.85223246
      -710.26900352
      378.64129771
      -8175.23535165
      21506.54691167
      4594.59900931
      4084.03128757
      5234.39687957
      17152.92015123
      14241.79466267
      28901.91582270
      43461.70775565
      13807.43777753
      12823.89581624
      37780.61383743
      41444.40766122
      1410.47904505
      35183.48021031
      29112.75225873
      25665.85064698
      16965.75418699
      -850.55276337
      14835.52508801
      15849.97801217
      26919.35960218
      23784.27866508
      15921.66998759
      -1621.31734416
      24340.92181168
      20891.44390119
      14436.13754987
      13163.72673982
      12649.48606849
      12652.71844656
      16297.13220387
      13772.34095976
      13294.83040368
      13118.75615370
      4332.66225456
      11773.26694564
      14137.72437597
      10794.93037168
      8553.27961982
      10345.88345516
      14322.68884940
      11437.65434051
      8743.08602020
      11067.50816576
      10314.41989791
      6505.20216968
      12379.24876917
      9625.15601824
      3911.03272987
      5333.64783211
      6942.02121206
      5916.87848240
      5260.30189566
      5270.99735285
      2949.89170828
      4894.12664182
      5473.80193611
      4175.39964035
      3581.36848539
      -163.17437979
      1439.16325413
      1806.49434866
      444.32946259
      -362.14169647
      277.65186350
      -7055.36771973
      48967.83160781
      52528.42203184
      22286.57254726
      21723.55416697
      8213.43476261
      16632.08005558
      27690.22170860
      34967.82883807
      16367.13014274
      11370.36250254
      36718.44066864
      14347.31090947
      7353.70756441
      11222.68685635
      13243.57811961
      17057.80340033
      12965.86451560
      9762.77441284
      28330.20688616
      18194.89066830
      8954.62960581
      24535.84168105
      16450.13407234
      14646.56771969
      20549.47218143
      23954.50385864
      13950.59790053
      15824.69590138
      10059.19436787
      20797.29075136
      17572.18603755
      10389.97362271
      8655.43947325
      24551.12152063
      16262.36930988
      3803.75056178
      4978.70072667
      13386.38985415
      10331.44336860
      11677.00459507
      10491.86864516
      15482.41723601
      8359.38742862
      11089.70142822
      15892.28234505
      5026.28002131
      11882.65235920
      13205.61565812
      1608.36921558
      5982.50811303
      7556.16892372
      4350.16589828
      8329.39016028
      3772.95144765
      4961.15195484
      6785.33663054
      2789.47716034
      198.14980771
      3321.91387422
      2142.13442329
      963.28021915
      -669.14058121
      297.89988785
      1019.58938895
      54.06190203
      -32327.05726218
      39304.20926882
      13744.84012143
      27143.62718308
      18381.47136760
      9674.65217619
      9449.18567288
      24661.58273894
      26176.27650053
      22708.29519322
      19980.98004726
      32081.01697898
      17599.13082818
      3424.18632184
      14254.27406878
      12615.08463535
      15853.24450221
      11569.12021264
      1358.99344960
      14114.64776718
      19741.26748215
      24684.82161633
      23281.56062714
      15848.60659039
      15179.39971553
      16407.48254932
      19447.03818573
      15627.04496615
      13284.91473485
      10529.88572229
      16721.00891644
      23473.59995909
      14340.52212022
      3475.25724566
      11186.23838355
      16053.39757721
      13194.96350715
      11624.64181397
      15868.14613068
      6162.18831610
      12283.62056463
      12773.35066193
      6557.34080155
      9930.96126051
      14601.25736498
      11128.80062181
      8108.15395468
      7730.15672747
      7195.64475046
      5645.38708879
      7131.20757585
      9510.20219183
      6101.55812882
      7141.92813975
      5489.32728115
      1190.96892871
      5345.64805696
      5596.85822022
      149.19269907
      1535.35470444
      1010.49218194
      2098.71181636
      1819.29627853
      410.26633564
      377.92494904
      431.80429878
      11819.66050525
      11936.16942829
      24812.21777918
      26646.84972088
      25135.99216678
      -438.80632731
      19510.96739974
      23331.07282626
      24093.01812460
      13294.93225444
      92.80726386
      37036.92369508
      17649.48256116
      7052.49240574
      19519.97460465
      18504.45555723
      22508.30867598
      26239.34565974
      16971.76082274
      8966.43658996
      17083.29438326
      13051.84503635
      27506.93649432
      21328.32881439
      5057.93272547
      20147.69705584
      24003.12176154
      18577.31319270
      11944.04275863
      7260.94894615
      17915.35767263
      12400.21298888
      8608.36414745
      18168.42156273
      13697.42841034
      11647.63258370
      8343.05417023
      6719.90987509
      21453.15491523
      14376.67792350
      6882.49953987
      14251.68246484
      18440.26073715
      8051.93689448
      10259.75872844
      11660.32358639
      3012.19951638
      10075.73373469
      15718.90788987
      9481.23354863
      5839.54244329
      11527.88568801
      8192.62682182
      3921.80995285
      7237.08115639
      7846.57674363
      2228.49269802
      2069.15761938
      2094.00097413
      2886.11672026
      1986.61090400
      960.61994227
      367.65355254
      586.40325427
      411.04303791
      150.04463848
      14255.60728019
      27798.09566267
      19487.23242458
      15291.41963974
      25318.21991110
      24422.33107395
      11505.53356865
      17066.63148547
      12386.78557736
      7067.21114769
      16628.88614934
      19712.68543140
      17971.23446143
      18506.05182661
      15337.17600140
      11462.96955690
      14669.18938589
      12599.79860887
      16076.24976230
      17216.91576470
      8683.76761827
      8338.16919971
      19785.69626042
      15603.94076772
      6741.29411513
      12556.57680071
      20763.56821222
      19868.62834999
      12156.85209227
      8737.69390393
      12633.93988427
      12666.29874419
      7706.38855576
      14270.18060832
      15621.82576409
      14724.60496138
      9543.94965246
      9219.28372252
      17984.95349114
      9759.91971656
      6627.40405594
      10749.38731635
      16905.85396538
      11347.08610363
      9669.74132914
      13632.06364718
      8817.58062781
      5195.89824357
      12684.01480461
      13731.79262635
      6011.64011086
      8329.41538950
      9017.20061838
      3615.01126561
      4188.58500122
      7517.36231733
      3705.95707874
      4932.83733762
      2470.88806194
      974.21045269
      1798.57410662
      709.88938770
      806.26139278
      1478.39934634
      -48.43603772
      322.88405503
      -24893.71041960
      17056.82772557
      13133.13773548
      22640.76290415
      12033.77026176
      6542.58925500
      10944.52083866
      21334.96386718
      10030.92352087
      10414.78787110
      10891.67202073
      32313.54021122
      18619.11877041
      12370.86887283
      16525.75923825
      25972.04868256
      23374.84963857
      16759.76084292
      15387.91356753
      15860.35162080
      9980.55655469
      8795.88684591
      12435.46129435
      17429.46484231
      7028.43354104
      14851.77512011
      11941.18999172
      20291.35281820
      15081.74470170
      3363.15463719
      22314.12349862
      18077.77715226
      14316.33223240
      11578.74468143
      7071.97042386
      12396.63401156
      12031.34640504
      11129.14903209
      16381.01117840
      15331.19474873
      6440.90681609
      7585.00247492
      12624.41389615
      14179.44887680
      12490.66919891
      13569.02013978
      10988.16853013
      8923.74471456
      6883.52968509
      7350.74904096
      4810.24529780
      10408.79752996
      7255.27014295
      3294.51995497
      3652.15878598
      3875.63954342
      2930.58355621
      3712.37027379
      4178.72298279
      2661.79253663
      1455.76330895
      1838.72316899
      1450.39040675
      1775.26364785
      309.02930052
      -181.39660196
      22334.83085147
      20649.57399944
      29072.98726148
      21961.49529318
      40547.48499581
      -8797.65133105
      23916.98251747
      20259.42608151
      21458.82023029
      14513.92740126
      13470.56637494
      21766.51242838
      19352.18444361
      19304.98838284
      17558.41268828
      12177.13266714
      7082.01706860
      20242.08067967
      13991.55866226
      17206.74339528
      14569.50636886
      19696.04936805
      19821.11778078
      20729.81691880
      8339.95097934
      13656.74520929
      18272.93962967
      16606.64898593
      17259.30285962
      11001.41048006
      14700.30663732
      24175.38409192
      12564.66548169
      9586.50373290
      5074.74707171
      17050.44545645
      18197.94614478
      9017.81709853
      11086.05839239
      15178.60077639
      8895.31586145
      9803.98495795
      15860.60953436
      10776.03452324
      8607.28415824
      15224.50575778
      13084.96227222
      5395.92546352
      11055.23485093
      12859.34138170
      4319.86924538
      11390.61593335
      9406.44122093
      3299.05769063
      7852.87381500
      4193.44264884
      -252.08192093
      5025.04276674
      2116.85945508
      475.21755777
      1979.41846304
      1468.63502501
      1133.21147863
      45.35817430
      189.96569606
      746.44208154
      -17528.50154525
      29642.00911282
      14025.53348338
      10085.50755612
      21598.95263961
      20688.35711446
      20779.73915237
      27368.83399508
      18060.71480969
      14804.79018705
      6311.19423683
      16604.93469681
      18883.44252963
      20360.37337813
      15896.47291594
      10788.94829117
      8978.27175874
      13990.49541229
      16354.39988472
      21564.06659627
      10877.41337351
      11154.29268003
      14145.11663181
      20971.67324317
      10794.25490663
      7866.02159271
      15023.92476242
      18747.31964948
      17393.37537021
      14993.16146347
      11717.95712240
      13950.70978981
      18079.90382870
      -1383.35288145
      11953.93031527
      22590.97592685
      9660.80628255
      6442.96502274
      10875.74162617
      18568.49901158
      12232.02989063
      8973.54510577
      12548.78493245
      15263.26639879
      7023.57368558
      13445.11298999
      10583.91944203
      4856.31561409
      8186.91753431
      9524.57178121
      8546.77193748
      9019.21318217
      5557.99012317
      3741.71175380
      7677.15863717
      7832.69309390
      1681.53832862
      4265.51835570
      4370.28582957
      1779.50964268
      1564.81210761
      394.27802098
      1206.49405786
      1762.37337290
      1261.17647679
      951.91063580
      28536.32427430
      10123.89406443
      4775.40552244
      22306.83394532
      27412.75074728
      28694.87813853
      9934.94964862
      17772.63332637
      28261.82669123
      23340.52744299
      -4770.78605944
      10041.18387175
      17478.19203003
      27129.81793851
      19677.86944923
      13317.89657446
      21864.80674247
      19496.30806864
      18574.08834378
      23838.53042311
      11021.18095760
      19405.54497806
      14908.65332478
      19292.66428504
      13496.45688277
      9752.72842820
      6351.92836434
      23508.80936793
      18475.16576429
      11805.87306033
      16381.09201658
      11417.47233238
      12781.13347244
      8593.44816457
      8737.35543300
      17070.81444258
      11406.64599681
      6302.26184491
      14774.25828040
      13645.57467792
      15569.68593468
      14493.76178954
      15424.86464239
      12097.31381877
      8455.87241657
      10109.79163281
      15696.34743756
      5369.64594778
      7714.76313920
      9574.33738426
      6412.27655783
      10516.47195862
      7047.84740906
      7321.33435255
      5188.58404056
      6488.11510244
      5674.32628371
      1735.73974761
      1522.55797982
      1961.04333301
      2725.59593841
      1787.11573703
      595.38079412
      440.41505730
      1100.72460325
      197.36454296
      6736.58450689
      17372.12270909
      16338.08193884
      14583.92442203
      33331.24526698
      36066.20281641
      6469.76856156
      4802.24216499
      25574.40553896
      20242.06875760
      4436.59465746
      17147.88328212
      14875.21576751
      26194.14255572
      13729.99528032
      4275.59231845
      20781.95452489
      15892.78191991
      16851.85230962
      17682.40922101
      7437.73187830
      20065.53498863
      14559.83654478
      11578.24775441
      14876.22097371
      11092.61367102
      10300.78296690
      17019.03267062
      18802.70156767
      19645.19815867
      9374.23325003
      13235.42939057
      15607.43352474
      1831.11418455
      7606.78136723
      15153.59651546
      7262.37208938
      11706.64445619
      8380.76721796
      19324.70434812
      14392.40265026
      8438.02342605
      17726.66477175
      12645.94997339
      643.27251152
      11245.48858756
      14141.72960368
      6968.45156750
      6636.74471225
      8591.39642059
      9154.51978556
      6777.51528969
      8831.09681672
      7116.89912818
      3816.96308158
      6114.15662285
      5496.04593239
      3678.57549007
      3651.76145128
      4181.89851304
      1096.91161541
      1869.80009740
      740.19127947
      978.39492764
      738.77225509
      7.89192226
      -12795.44213040
      13257.97374908
      2092.29331256
      29573.37779995
      12610.84739177
      4944.96632701
      86.08645071
      27713.00949935
      9904.77574050
      10050.71519950
      -136.14962976
      14742.01215527
      36423.67973825
      14203.69589151
      6669.89889078
      16353.49242152
      6655.77190387
      14859.88606324
      11747.06892274
      15303.78507866
      17108.41476629
      9456.46663366
      9392.76393178
      14469.32221003
      20275.74259021
      13266.50639230
      6053.88459136
      9862.58877060
      8600.46893373
      8941.53046050
      1543.84615864
      13324.66785091
      17573.77180992
      8434.85607314
      4973.53135386
      14578.74866063
      19994.92008577
      13974.25556116
      10460.89678324
      14027.18308397
      14812.79293446
      7143.12423423
      11075.54345793
      19147.89734374
      9889.08750981
      5594.60702780
      10448.40819452
      11028.87996985
      5073.09698040
      9062.13435052
      11828.44613721
      6241.91785399
      4280.76460541
      9164.33977160
      3173.20307354
      7978.40756667
      6625.96209955
      94.39812748
      2958.30642879
      4470.77994872
      2705.02301508
      2744.76658008
      1324.35838675
      1644.92763619
      46.13836985
      239.13926038
      24407.91892145
      11710.71057191
      17066.36992118
      26042.79631465
      35200.68418103
      18155.65741230
      28100.29613884
      19300.73407480
      10961.42001683
      7996.82562104
      16892.64321672
      17630.26237841
      14362.46851122
      16044.54506593
      17339.80597265
      19475.43117341
      10782.82574270
      14813.19626853
      9222.78067640
      9316.40572602
      20053.99633483
      13657.95834889
      10989.36486011
      13814.93703746
      20053.60188200
      24349.66973592
      14990.49968243
      12975.37813234
      15585.58136347
      16737.95114661
      18205.57528641
      5762.62801202
      9519.40335712
      20575.77689821
      6295.76033535
      4553.23202018
      11824.00617623
      9163.25621964
      10348.87905137
      13199.25893707
      16083.46643616
      13276.13156562
      7218.25505049
      10799.35819241
      8143.27005419
      5674.06506467
      7884.81662939
      7192.94226069
      3343.82401021
      9989.07189615
      7841.00442365
      4684.43353499
      8071.28137833
      6492.23500820
      606.30177328
      7052.97199561
      4011.05384768
      657.87477373
      5475.27349507
      3609.61114221
      1092.39886907
      3117.41967094
      1514.78129993
      -148.23897427
      -172.81228495
      351.90066254
      27789.84176636
      9503.01316916
      4877.17001324
      8959.79766696
      30067.08728742
      19501.91027250
      12065.25272497
      -519.85033860
      20589.66735500
      25199.82857766
      17461.99296479
      -1171.31691199
      15338.74007676
      16508.54537059
      8681.08123976
      15515.09855912
      19538.80615969
      8069.46137248
      11810.59807448
      12564.52754868
      16002.63872927
      13577.66837645
      10498.89989169
      9219.55021169
      12997.36698035
      7014.59886326
      10221.12150303
      8196.41357821
      13519.85985359
      14143.16665983
      10405.71247420
      5125.04126992
      8747.61873096
      8424.73229898
      1755.47956941
      10295.73152294
      10648.62552902
      12069.65055785
      7256.08528626
      6828.38679321
      7909.83428184
      8668.89145461
      3895.86321835
      10072.58697552
      16736.20789814
      8554.07799571
      7490.68772509
      8012.13607254
      5156.47490693
      8065.87508323
      10879.66504891
      7136.23431010
      4987.13371172
      10514.67538711
      5364.71225290
      1060.92362016
      2323.15716183
      1984.05643722
      5486.96277372
      4347.82643364
      577.19095441
      1923.83649060
      250.32004132
      431.05398618
      405.72658637
      65.31883895
      -20521.50955305
      2747.68420699
      871.33977008
      10103.60031037
      25433.32811798
      24217.24009939
      9198.61392098
      9014.28791945
      15877.62218652
      22282.66492063
      13174.18624734
      4432.63556102
      12589.96116132
      12566.83701298
      12980.52853469
      15106.09385815
      18680.35391703
      14570.17769957
      13845.90470365
      7352.91732042
      13856.26838347
      27546.90720445
      7598.04119357
      2985.56405525
      17759.91590185
      20018.87688957
      11270.83708974
      8747.99884315
      11127.93666715
      8035.65103426
      14042.33962659
      11645.33110659
      2108.47346498
      13204.94853291
      14679.49434885
      8052.97758906
      6623.91818158
      10150.88213122
      9730.99577104
      3169.79929293
      9567.74132512
      15884.86758020
      7292.45780295
      4869.21604436
      6819.13138531
      8832.34883782
      9846.73176549
      11068.92943558
      6154.97168193
      4233.94576014
      4605.91431419
      5888.45764744
      2403.80564171
      4401.80308237
      6662.92751711
      4596.45797356
      4787.06030414
      6894.10869673
      1027.68567574
      3268.54268669
      -198.35110682
      3262.09676603