<?xml version="1.0"?>
<VTKFile type= "UnstructuredGrid"  version= "0.1"  byte_order= "BigEndian">
<UnstructuredGrid>
<Piece NumberOfPoints="5123" NumberOfCells="5123">
<PointData Scalars="Pressure" Vectors="Velocity">
<DataArray type="Float32" Name="Pressures" format="ascii">
      -688.72677920
      5032.27752858
      7701.58940816
      -35561.77368429
      -25076.91863939
      17801.81245542
      -20482.92742986
      12557.65751209
      7126.40379081
      -37979.07088609
      10443.54795453
      -24929.46055353
      12049.78199636
      6537.71094964
      -24289.64383439
      2961.69550534
      -28172.76905675
      5512.83056794
      4528.05357209
      -19896.22698744
      5908.67933877
      2272.38695898
      3139.94825769
      2701.31254667
      -10507.19813994
      1913.30501717
      4414.88282411
      4891.14651624
      9399.50920277
      -372.98748665
      1410.42537416
      -24856.96396295
      -6180.20836410
      -17031.73333673
      3973.29810105
      1161.37950237
      -13741.46035858
      -4596.88188579
      1217.27459404
      -581.96326342
      -2508.04762201
      -2830.62559622
      7056.29147391
      -330.92115766
      278.81722995
      -2537.08993668
      1277.07491591
      1631.48520704
      -774.27330636
      1279.29782917
      774.31564578
      -122.15943806
      1258.93797830
      828.42618800
      -611.59495167
      -857.71492519
      -651.56777746
      -1662.95178251
      80.97011544
      -274.12141596
      -618.63769085
      -2348.89566388
      -301.78539765
      1333.71383444
      291.20140508
      1000.53609212
      5684.34663865
      11863.10795207
      7470.51628610
      7983.31141249
      2901.41674919
      2563.16875703
      2107.22042833
      1646.46767814
      3159.44835974
      3249.84030785
      2248.91926538
      3824.80718762
      2753.69447434
      1936.53772077
      2805.47344618
      2008.14921272
      5066.42156085
      4651.78449188
      2237.07075878
      1785.76836665
      897.48409688
      2144.08398922
      5647.96151548
      5543.82958505
      1403.45438560
      1871.56477958
      -795.99889045
      1168.28991072
      1831.86523451
      4236.50919514
      4784.52598934
      -2902.76244016
      -47.16370325
      2231.96193770
      4911.16112810
      4059.30459286
      1035.54827024
      3189.48379683
      -3828.13130121
      244.23562736
      -900.23200501
      -2363.44266580
      3312.69257094
      -3620.87416759
      2122.32269275
      5.29234799
      -182.38583953
      4433.24661508
      -3768.41795011
      -3081.47410696
      3082.45803244
      -305.34140273
      6081.12130902
      2237.90038094
      3513.38995844
      3504.24612416
      999.32571280
      270.96931093
      -2492.54062772
      -1916.71860953
      33.32660802
      31.02925830
      477.16669435
      1265.83812167
      536.95059740
      324.54371766
      7842.31325479
      7608.13585238
      8541.72761256
      3191.05765201
      6898.98637590
      6483.93819326
      4570.29813233
      11505.96535007
      6718.50959647
      4838.68330772
      2896.65027347
      4256.15604115
      2923.04857864
      3305.86972121
      -965.30574783
      11176.69081542
      8040.37590062
      1481.50423956
      4117.64162578
      5041.50726062
      7411.13688182
      3460.77971838
      4218.01482539
      3719.56997934
      1847.60671062
      1751.44726497
      1711.44411879
      -39.93901752
      4789.08601847
      5472.71719163
      3987.34005448
      378.95108770
      4518.82523352
      8510.47683146
      2735.65418140
      1647.87945420
      3427.18186203
      683.16180454
      3725.57191530
      -5710.41639977
      3313.55039442
      832.02885805
      1495.93952225
      2066.29322423
      1657.54930037
      -2161.93533957
      5480.63466293
      953.40216532
      -387.13303014
      -463.79510440
      1553.08385874
      3079.18990326
      -4261.17438730
      2067.16708610
      -3327.88779651
      1904.76228862
      3075.49868461
      -646.73746074
      1960.26218476
      1776.17054726
      1388.09601354
      54.72319854
      -150.73990086
      -976.54209463
      192.86860979
      218.71636850
      4865.64329757
      8684.34167665
      7092.32923418
      7859.24715155
      5136.55529171
      5935.59645099
      6183.04887505
      4878.61321677
      4956.82070328
      1897.92779900
      6853.13638541
      10428.71642671
      11016.10883598
      3244.06889398
      3319.74916727
      266.59327091
      8365.41590376
      6273.40056074
      4895.12032651
      3644.15364749
      3097.11667876
      7074.94958272
      9616.58345702
      1731.91182108
      5647.60751957
      3607.79022846
      2510.90756456
      104.62148651
      2197.77970832
      4451.08933730
      5357.70797398
      2964.13229842
      5877.40465951
      2577.23927297
      3251.16051587
      2019.22716836
      6271.24997234
      -1588.68138675
      2509.30913698
      6256.74541896
      1823.41520517
      1342.13611586
      -1614.14403078
      -510.37374664
      11483.37200636
      3816.38174648
      4282.70673174
      3434.02735187
      -2038.58711200
      -179.31046367
      6761.60285006
      921.51374184
      -2488.42081476
      3474.84613419
      1278.94525527
      4679.87657618
      1632.10301579
      898.74501993
      1643.82975032
      3571.50910319
      3268.18099070
      2695.24413622
      3013.64352872
      -1129.04507556
      -1878.94979884
      1026.60471939
      6143.61241289
      7988.27311108
      12593.11470770
      14630.18189923
      11379.05328130
      14763.20859553
      7380.84222703
      7701.10402872
      1416.26758474
      3689.85562092
      1921.19287275
      3822.86242524
      3569.94433096
      6326.12309962
      13666.07419112
      5515.44484663
      7229.93656673
      8404.12373644
      3313.89700981
      3704.53201434
      6305.37212732
      -4201.35240812
      7201.14556138
      2969.73844906
      14044.57516672
      11541.32227679
      4623.60387454
      6452.65653193
      1403.79002553
      1649.93596117
      -2013.33741159
      455.99565679
      637.57193112
      4186.88354844
      6798.40079471
      5863.91260155
      6916.04340548
      3667.02412504
      3150.94782514
      1394.63665844
      3378.17972049
      -5269.05716249
      11603.77497901
      1411.75596441
      -59.12364355
      8964.60648809
      4661.88501019
      5906.43481612
      2374.00757336
      1745.06482379
      -1640.54443010
      -2277.66268900
      4836.66798571
      2951.74241501
      163.64492514
      4186.90827507
      -706.80447194
      3527.64773759
      -696.82645874
      497.90298140
      -646.97054075
      2440.67589324
      2253.25401852
      1922.92771216
      584.99833861
      18.33591439
      -17305.06999468
      8322.09849029
      9970.36475390
      11313.25221391
      12064.80973532
      5230.13099144
      3375.03938938
      12607.34896136
      11788.81316901
      6556.06350982
      7368.90497280
      -5206.79530972
      8355.77575553
      6693.15812424
      960.92136490
      5541.61198949
      6886.26188262
      9236.84358165
      4185.76591067
      7821.94612070
      3483.25450585
      6206.10274482
      4567.82769967
      5050.80524421
      5963.27838097
      2556.81380106
      5650.06202151
      3546.74992926
      6844.83589093
      213.85617658
      1070.05103552
      3989.36027619
      -433.11757459
      9011.45594339
      5106.37020854
      4082.93058765
      -963.07207057
      5628.71174542
      6477.77297425
      278.57681885
      426.09387444
      6568.39012057
      1158.41867660
      3832.65550226
      3510.76006157
      4651.17263487
      5318.77141796
      5826.69571046
      4179.75333487
      -5215.55450645
      4958.40343290
      1576.25571833
      5759.70493782
      -383.07953575
      124.12336959
      1278.81588384
      1547.58270451
      4508.93788471
      967.67037951
      2284.83396019
      -3276.20917936
      -124.40455145
      3213.59385078
      1376.34079528
      161.00376910
      -55.49495311
      -28807.02041058
      11483.14780714
      2045.69833393
      3356.42360613
      8842.92095784
      6566.18676376
      1582.15272897
      1530.94231759
      5911.15533196
      4827.47223940
      10983.32286708
      8280.10583324
      4117.13668500
      4931.14622839
      3310.13942980
      3049.57196534
      7742.91919836
      3341.77766936
      11660.05814059
      8204.46894868
      2678.89020568
      2344.68245398
      3276.17557503
      13055.24260506
      904.23257434
      3785.22211856
      2595.60929351
      11322.58762779
      911.03046094
      -5478.92727986
      9857.08324499
      2400.02105194
      2880.49954077
      -1419.72074924
      5311.77114415
      2524.84994934
      2364.98642325
      8395.83924292
      4570.84870662
      1394.52729346
      1521.28662827
      4630.44021591
      -2393.46944810
      5485.37041529
      2432.87540145
      4041.40329748
      1578.92479827
      2362.26567065
      -614.52436321
      6611.47779913
      4722.77715878
      2911.54724238
      -368.98097330
      9118.87896990
      5559.58913843
      -279.08902826
      2053.81720960
      1001.80034048
      5025.87738271
      862.80866198
      3259.93264056
      320.24098278
      132.43322375
      5523.88160616
      281.50019086
      -243.52360072
      17050.36871402
      1536.01402270
      4263.93691812
      930.07297454
      -285.14372827
      1591.93582801
      12814.04557271
      3363.78849008
      8104.58943166
      2098.56647834
      9688.18060328
      6030.44092865
      -421.05283624
      2322.99490090
      -1915.77196339
      824.79934845
      1971.40573778
      3130.63074626
      4495.93588711
      4727.34872887
      13836.05787033
      11916.63845219
      4035.89900284
      7144.16707744
      5933.08979140
      -6365.19474440
      1164.61707936
      5381.24896131
      8899.34728664
      7366.65359291
      2921.03525537
      3231.15540529
      2273.49091563
      -138.67689253
      3455.97629289
      5912.32843290
      2320.17874917
      4128.84340316
      589.79644539
      3733.46777652
      5672.80061412
      1717.05232066
      4122.95217701
      4072.20585779
      2451.60574314
      -2750.58587042
      5215.26642193
      3916.98918283
      3639.72410186
      3856.98962755
      1333.25738446
      4360.47216486
      1185.43386399
      1261.84610400
      -1530.85165909
      2360.42863230
      2627.04880388
      6008.18540310
      512.28883945
      -448.94547710
      2387.45092672
      482.01813933
      -159.66560023
      2548.01374613
      -1488.36439334
      -367.84278279
      -18063.76538625
      4317.03326048
      3348.85983653
      14181.59153488
      13370.97142955
      3199.75345199
      6462.50037339
      5011.06757582
      6140.20930574
      4904.18328351
      10449.25584744
      4183.17175918
      5043.82683969
      1568.78120656
      3099.02609261
      9074.65297699
      -689.82947091
      8267.55512574
      5245.32687888
      5113.52207857
      2657.48852891
      5476.23419123
      6852.36908867
      7350.34591952
      3685.54094690
      4036.80043663
      7084.81108082
      -426.37789779
      62.92801863
      7358.33969077
      3526.87486743
      3455.87006409
      3280.05490736
      5631.53122619
      6096.43482447
      -2856.65917450
      3814.22366819
      2086.41204995
      1580.44447039
      6669.57866686
      1923.13442386
      1194.00503995
      2916.82265117
      1250.72222502
      3184.83721553
      1667.61890286
      271.96683568
      1310.25047072
      216.43015742
      2000.55782249
      3183.90338709
      -1269.55655625
      2336.35438067
      1102.30990429
      2728.24724627
      262.89525376
      2728.01872611
      2169.08003263
      1067.68893814
      -1957.05012559
      2145.90926151
      2780.45553980
      2272.85650306
      -306.94691016
      617.91758326
      1362.24821375
      -35532.71009678
      11428.50982457
      32598.69908735
      8401.09553347
      9169.31522393
      6345.64936701
      4904.21590681
      14416.87350998
      3554.00327951
      7768.21185869
      -905.62145413
      3349.80859445
      -281.90702813
      2200.65521036
      5432.15534847
      3868.13652483
      7382.94649630
      6885.68524887
      7346.58320839
      5718.69927428
      5222.66689735
      6782.04038558
      7960.41781710
      35.26996224
      2531.25849479
      1864.79703339
      3499.60862129
      5942.34870276
      -1226.89894958
      3791.40475455
      4977.42592729
      8464.69359020
      3115.50661952
      2518.94406546
      1520.86979386
      2228.45527476
      1700.38524881
      6314.43871329
      4928.25907688
      2422.28561419
      4067.46129380
      2910.55492813
      3095.68017613
      4511.41613193
      -2880.13612028
      3402.04509934
      1014.07046530
      1963.01313436
      -1283.99455312
      -132.78436707
      2531.91077000
      5014.24617660
      -195.61372207
      3987.06091617
      1985.75491445
      -2058.18184729
      724.42298954
      2838.67186978
      2266.80077242
      3206.10337164
      565.65207155
      906.47052249
      2847.66107819
      -314.96220345
      -1077.10601843
      -1485.08934162
      -32327.05726218
      14336.87746954
      4035.18201715
      12328.83412551
      4969.31758805
      7077.30025943
      9424.90405941
      899.83072102
      5923.19568431
      5256.14915236
      7082.12676750
      7990.00120772
      1986.56818991
      3977.74232899
      9244.33007785
      -3455.19865646
      1787.41428864
      5923.78376945
      -1149.92557419
      13074.37866207
      5424.79311080
      1856.94060026
      704.93142810
      4089.18747909
      6116.12439513
      4741.35855393
      3085.79905620
      5307.99105967
      4356.44354037
      3027.24429489
      -1146.63623331
      4756.83717453
      5269.68514579
      5165.77894830
      2198.86318339
      2659.13172274
      4178.12897888
      4607.67810121
      1984.89856902
      7620.69289449
      3845.72684830
      1499.94484120
      333.52795777
      4671.22047729
      2155.56109273
      4091.12430021
      1490.52427531
      2505.07633938
      4684.56635807
      1611.96971551
      5436.47190118
      -2154.61256049
      5839.87488186
      1572.97804652
      2230.27294844
      2065.00807262
      570.60535561
      2161.24802587
      4252.69329246
      719.97067600
      2373.40906450
      2317.17774707
      1460.04508202
      -1039.79063553
      -1833.28548804
      1001.90905584
      8477.14808470
      6692.61180846
      -6503.90850340
      6701.36054083
      3353.56090593
      8777.91114042
      1954.35498036
      5117.98360798
      17450.41811519
      2764.08539682
      7829.64583944
      8862.93275679
      3174.72437296
      7965.04711492
      4092.06174263
      1870.42354142
      2158.24045453
      3313.90130232
      9641.02356283
      7204.31750586
      3887.47959619
      3896.87781184
      5534.63618019
      5157.98100197
      3362.16600234
      5822.52643069
      2141.58610071
      2802.48873001
      5185.66489504
      2459.09933634
      573.79680260
      5271.27399819
      87.65290317
      2985.57832779
      5713.93441984
      4263.47168058
      6746.78140379
      6654.96556096
      2025.15890359
      1805.70665294
      2925.00960451
      2974.27018897
      3707.82305946
      2889.90737298
      4993.42706322
      4053.54108954
      -937.59825207
      2192.50884762
      2583.42616352
      2398.39696177
      3057.37893668
      2991.11998588
      3833.01734443
      816.40896086
      1698.10566144
      2040.82368681
      1013.28814471
      1168.21948126
      4434.73307349
      -1492.35292845
      319.81087310
      3485.71954937
      628.51677255
      -1904.56987532
      -229.87561595
      140.06423215
      5925.16602583
      2665.00326700
      5700.65720727
      9913.16159216
      -157.23529246
      3563.30863498
      4102.67737047
      13481.96933227
      8566.74264229
      5594.57982644
      4734.74171619
      9133.37099387
      2758.12748887
      3432.58568288
      -442.08407403
      6212.35333280
      4784.75416866
      3868.75038972
      3098.89648329
      1763.46738628
      -2981.29972964
      510.60519243
      2922.64047486
      2739.68218226
      -656.89081464
      12000.30591001
      5289.28413086
      3809.77053614
      465.70541293
      -3349.81277627
      -733.90968936
      4468.60994937
      6432.44088403
      176.84204040
      5281.50833267
      5722.69414868
      2704.92619974
      7022.06821693
      5821.65208081
      2520.65569300
      4287.35214297
      789.19463628
      4888.86908798
      6531.10457624
      5275.51462730
      2795.42944794
      1624.33162843
      2123.38090928
      2229.96279167
      2867.79571482
      2708.66653049
      2444.97484679
      960.81769479
      941.23523630
      2530.26760584
      265.82248488
      -825.97818141
      171.54609900
      1082.27897156
      405.29529355
      1500.71294807
      2382.61434204
      967.62745270
      1803.00121298
      364.44567846
      71.15285556
      14267.82062254
      9863.36970910
      5928.36134650
      8485.88547520
      4480.39577100
      4596.39691668
      4305.45677445
      4740.95709465
      286.65569894
      4387.12785316
      3947.81603286
      5556.17658620
      335.02830600
      2049.22444881
      -2197.95036872
      1058.17264537
      1816.30080569
      3672.55081528
      -212.22673641
      2462.28745291
      3879.58509280
      3816.37662880
      6790.43083643
      3100.35450556
      1444.96323004
      2934.82961018
      2364.94986504
      5018.45201655
      3997.06163946
      1744.25211502
      3418.54483038
      2902.15441494
      2695.77632964
      -5847.28157947
      6711.01492022
      6295.16514140
      5726.71440102
      7930.13589455
      3008.99548588
      1204.24601892
      1969.75039869
      1745.55960366
      109.01895597
      1337.44697895
      3070.61123704
      2004.11190525
      319.81873569
      2327.75947781
      1975.89978868
      3718.08555060
      3310.92643399
      1741.35327042
      1872.22488348
      4577.70914431
      4239.85968455
      1214.61805358
      2305.61258170
      4847.72523780
      2834.45320377
      525.19450222
      -193.80694225
      2210.07174315
      -2044.51424303
      365.88717381
      897.18693277
      1723.49407328
      13310.91235172
      24331.24026081
      13210.51394037
      2739.03818290
      2622.88480970
      1210.54818560
      941.76311050
      5797.08466492
      7920.61574745
      2227.14499519
      3111.50145553
      606.43486529
      -2111.84735986
      -1314.12597213
      5958.54187530
      1473.62624472
      2415.19588936
      2223.02552841
      5129.58729404
      1766.21827021
      1177.38553590
      1623.89860463
      5399.05785282
      -261.30403802
      4237.56278616
      10324.13390859
      2220.56287268
      4472.22831960
      1545.54810763
      2888.67780495
      6122.96634457
      -1232.18462874
      3940.28958654
      3523.02758288
      4460.96133310
      -3887.67898305
      1728.04575196
      2604.15181597
      5302.36169625
      3795.47635173
      4984.05183641
      2351.59939732
      5109.18540675
      4121.47529666
      2107.63378197
      260.43299734
      1014.94931934
      1822.06861810
      1562.45212911
      1359.64566609
      3644.96747862
      5228.13840961
      -495.92451575
      2767.36507112
      2478.03276975
      544.22575934
      367.37812282
      3673.59477184
      2180.21565314
      -313.20551217
      85.78591627
      2156.96281973
      -1361.71362694
      -385.03340163
      -269.09628144
      246.29438349
      8367.04890877
      9159.95574267
      5944.44615504
      6049.40509644
      6064.65575532
      1919.22782918
      4774.45105814
      984.14416387
      -763.35332933
      7519.98149826
      -927.22892554
      6566.76966748
      -596.39398015
      8092.91754491
      5754.68916724
      456.17109308
      -8923.75103996
      11729.70407184
      -11.26000440
      -1131.01188113
      2585.19582742
      295.47035986
      394.28223764
      1300.54138542
      -66.41870829
      1519.99955810
      3554.21907823
      7584.07040107
      -1941.46686090
      -1345.18370320
      -1978.74022850
      4672.34741108
      2052.25568017
      -566.11461896
      -1537.29506831
      2030.07718636
      3335.19630893
      2470.98975995
      -1288.57141241
      -1975.26005819
      495.51338301
      4547.05606523
      6793.65808937
      2096.62562968
      618.30789888
      1.15471328
      -873.16726285
      -3588.22595638
      -1105.54353733
      2697.64556859
      3598.97774303
      3481.91583970
      750.99267697
      1301.03345080
      3262.21262747
      2121.22153692
      2329.58405735
      2763.97183197
      2685.29007831
      2384.28594777
      1697.98466081
      4328.50243043
      733.98312950
      1535.16256111
      933.96841534
      2211.97181912
      8999.74095142
      9909.12943449
      6483.23412223
      6826.42517911
      3750.42198454
      2856.92598478
      1572.36479670
      -87.84240764
      2231.34744274
      9660.28109387
      4501.16246778
      8873.11940130
      -2740.76571602
      8950.48558798
      8345.12868428
      -4551.18545304
      -2034.34568909
      -375.77160921
      1662.67007556
      -788.07861600
      7981.30125783
      6526.00455065
      -2179.56207246
      2089.52859154
      1076.22679546
      3348.85143914
      827.52915473
      11631.77339308
      -5606.68554264
      9029.27387020
      -4139.22784625
      -425.88380903
      2542.38985812
      1538.77818590
      3154.98876334
      -366.42187858
      -100.48923844
      618.65472721
      3273.75726948
      4090.62097000
      5235.55843645
      5067.66245087
      2268.06145048
      2030.23493329
      4121.69122857
      2661.59490071
      3827.27151158
      194.68835309
      -774.86966801
      1361.45233120
      1420.69637562
      332.56288815
      2276.87249052
      287.84436272
      2010.61626247
      733.35105727
      2828.39752221
      941.86763937
      2925.64804123
      2371.94426699
      -2149.71569292
      4914.78689060
      -2525.67852128
      465.50032540
      1178.57778660
      1167.90691857
      8731.73533202
      19963.35849870
      8885.40771808
      9718.83628404
      -47.91891090
      1171.20883695
      48.69688851
      6637.49191995
      3254.28532051
      2019.66906860
      -3729.92160242
      3751.26162829
      3913.03343983
      1165.42540959
      2640.21076408
      540.61169718
      3014.82142989
      360.06627684
      -2315.05600104
      -5619.26426446
      -3061.52457587
      2045.15297735
      3939.33016171
      -157.41102346
      581.15609594
      79.05156681
      2473.43322577
      -472.04379746
      1470.54861898
      535.23783568
      1963.33540120
      1134.15856437
      747.82389857
      -5815.84494218
      2114.95435246
      -213.78319347
      4524.99229460
      956.09809727
      -861.70495593
      4088.36870284
      1043.32880978
      5093.91293031
      4642.11094968
      2006.44473103
      3322.94144820
      752.25199678
      -1536.24614422
      2021.38466701
      -828.11452673
      -989.46085161
      2091.60143405
      2635.16634857
      5343.96216223
      2100.26136081
      381.27283955
      1603.35298857
      866.32301294
      1018.10841614
      -660.54409506
      826.28042862
      288.85019459
      1240.92780998
      -4512.15703596
      280.78775539
      1317.36427451
      1641.25125540
      18445.74331831
      9102.69344692
      5082.07812060
      7426.32835794
      1200.56732934
      6525.44620861
      6077.63680166
      799.37822399
      2357.79974729
      1372.42383095
      1335.77680827
      104.19306571
      4809.99959308
      1158.82300689
      736.94551642
      808.07218109
      5618.40313934
      10076.65326849
      -2314.38669775
      3870.21015394
      -735.19032930
      -2817.86329990
      6296.57282075
      11772.34976982
      1080.27163032
      567.98811453
      3214.04844997
      -146.27949573
      4159.75089030
      -467.89376069
      -4313.22125434
      -219.10977781
      2065.92436188
      -1840.42674136
      3047.93236972
      -2290.40885991
      -797.28525096
      355.09848791
      3338.90169450
      1091.15825862
      -678.17074194
      3314.64471166
      2042.82729661
      1240.55347271
      2066.78077710
      1969.50561407
      2041.11364124
      689.75801033
      911.83239788
      3089.79201767
      -530.92283445
      828.23977326
      201.70448118
      -1272.60510567
      1685.99905843
      1821.68358340
      1063.03798750
      -228.75300269
      2692.74870311
      1669.75452091
      2407.65787382
      -869.80468601
      -230.65062960
      362.81624402
      167.16183053
      -388.74131642
      12462.91482775
      4337.04544896
      6947.80023793
      6707.38476377
      6500.25772311
      6689.46923966
      399.23170970
      2411.69537119
      1774.13798678
      3596.35571165
      3625.88607622
      -199.26934691
      3940.47833800
      1176.13710279
      11688.73261626
      4106.69478371
      4423.02481380
      -541.41258818
      4962.07115094
      1901.75844404
      -8026.83781342
      7445.50080803
      -157.81546895
      5990.45791240
      3493.88500409
      -742.30403627
      -751.58398982
      928.26493665
      1948.74681985
      4807.83665460
      2740.26718097
      -961.77975006
      2030.28665503
      6402.67623138
      1290.95720708
      1797.61255157
      2075.40515629
      1323.02199442
      4289.36490686
      108.42160842
      4401.58147096
      1651.01052822
      2947.88258885
      -2755.05277212
      1823.20368633
      2181.58068930
      -1116.82778070
      3136.41555622
      -1667.60724185
      586.03481517
      787.47516995
      2591.56227390
      3171.26815946
      3545.61391043
      3766.47284613
      1104.75749493
      2877.74353660
      1303.31334718
      34.90177159
      1778.22086896
      1288.63378563
      363.06641365
      -62.90059385
      -1164.02242886
      506.09443949
      -43.33648168
      -2118.09702487
      7035.31804325
      2794.87000696
      1011.75921941
      422.11752419
      22678.64507584
      4764.71184020
      4837.49722178
      1154.45471799
      2416.01572195
      -615.69726266
      632.39209477
      3661.15456144
      10486.10565836
      3420.72426795
      1428.48123524
      5864.37645375
      20768.56422232
      7099.91352684
      -7655.01944821
      -8876.66063451
      4073.21513594
      4798.50362468
      7801.30362158
      2817.96502518
      6404.95766886
      7148.31774203
      5201.29427928
      7065.19581979
      4264.27816917
      4512.61440855
      -1557.66080596
      3869.24415515
      779.82951407
      -1397.05105348
      1479.01323617
      1957.62172889
      3325.10160098
      2095.96121267
      346.73062107
      2215.83612804
      276.18854805
      -1463.13709408
      1434.51584136
      804.89838552
      -1173.92920856
      1624.41932597
      597.45101959
      -586.81284983
      -86.82177657
      330.47284164
      -1014.66097086
      3113.20235671
      2591.94722001
      399.06707799
      2050.60911952
      1647.22124828
      1369.56492058
      781.03087447
      1111.12095859
      2303.51109909
      1243.17316403
      323.07502110
      217.72060695
      -833.14265973
      -352.91048533
      -19965.59071168
      13150.02685943
      8757.32227053
      2741.85876966
      -2165.79626313
      6569.17832771
      777.04689688
      8590.71518034
      2963.89943727
      -278.53670370
      1953.87276586
      -8344.68741389
      8495.71405511
      25510.74493044
      8030.31507033
      4620.72527126
      8232.58254237
      -12568.77127140
      -7565.92987199
      -2898.88171977
      -3445.50270470
      2627.38167993
      17576.79490916
      840.10723384
      24440.50064814
      10596.37185960
      2267.75603535
      3085.71398947
      5421.77038315
      -187.91267649
      2576.81095886
      2182.04611978
      -1963.03796085
      5965.96119113
      1310.64947934
      964.01456198
      6284.92585531
      1279.12841667
      -643.32051675
      2417.60280120
      -314.02061078
      398.24267684
      3410.44594545
      -1698.35973771
      486.76176323
      793.69824162
      -2759.91672674
      739.30603511
      674.22504146
      1903.17555523
      -119.11206889
      -2053.00902363
      128.17372287
      446.91180380
      3732.45729615
      1094.91880487
      1459.07701215
      447.25890179
      264.02903107
      1555.50954124
      2942.81927451
      -732.41211414
      -261.54209109
      246.17551656
      -241.29538288
      -999.09228806
      -20679.69231914
      3325.13908025
      7127.14672504
      4082.43294662
      3211.28630819
      3010.20258751
      4211.67865053
      1436.40306731
      7402.54521893
      1961.14531107
      10492.61319871
      7741.30156109
      -1937.03635446
      22810.75276140
      19188.02320031
      8527.49707705
      6154.91408856
      27196.62624306
      -3750.32034718
      6113.52268584
      11937.98713281
      8628.08751562
      7247.03072358
      13928.48209096
      2306.18898060
      2133.78600927
      2569.50802201
      2062.04714703
      6368.93195221
      -314.01994821
      7274.09580178
      3888.18571282