<?xml version="1.0"?>
<VTKFile type= "UnstructuredGrid"  version= "0.1"  byte_order= "BigEndian">
<UnstructuredGrid>
<Piece NumberOfPoints="5123" NumberOfCells="5123">
<PointData Scalars="Pressure" Vectors="Velocity">
<DataArray type="Float32" Name="Pressures" format="ascii">
      -941.41257269
      3009.59398017
      1921.15036897
      -35561.77368429
      -25076.91863939
      4595.31549123
      -20482.92742986
      402.73463013
      -527.69748451
      -37979.07088609
      1142.89799014
      -24929.46055353
      998.72965420
      588.52819299
      -24289.64383439
      -217.65197042
      -28172.76905675
      -585.60312501
      230.98506776
      -19896.22698744
      482.84229049
      -1415.32122788
      599.42037775
      -1968.26594804
      -210.77070906
      -1294.48057221
      464.20967709
      32.16419813
      -560.37318629
      -238.15165180
      -729.85711824
      946.59585727
      -600.39367949
      -76.07105476
      -2708.63300822
      -416.07799487
      -265.01267717
      -104.48097624
      -520.00714690
      -41.78585069
      -5641.43047787
      359.42169404
      1674.16394203
      179.65705525
      271.19396739
      -48.96327152
      49.64716321
      689.85249085
      305.97664035
      209.39178635
      -521.78728725
      591.39106288
      234.76019597
      -2172.07343439
      -1235.45989895
      -76.00243017
      64.57009004
      -97.76939199
      76.91245590
      178.73960396
      212.67988764
      5882.86447593
      -1007.28851536
      -548.86705354
      -69.49879238
      683.51434115
      1893.04028313
      6985.76569366
      1247.86383014
      -369.47468013
      -1050.87041892
      1643.46113149
      1346.91680675
      1385.14190941
      446.29668369
      937.60947031
      487.59844507
      -625.60251489
      1040.47075575
      625.79539326
      349.88805287
      955.84113165
      4216.99733494
      916.75761421
      1832.53738284
      -370.85937353
      509.38486182
      1911.81929081
      -593.08993683
      748.41152976
      -167.18777432
      -972.05073754
      1243.35845454
      -138.24528369
      3272.47843706
      -4.41594582
      -145.05599394
      -1019.15071951
      469.26483135
      3987.04750631
      -61.25191629
      -3910.74225667
      554.97607340
      3303.21846332
      -562.89455300
      -71.80424529
      816.89329186
      -744.22841179
      41.14822282
      -442.60765248
      553.70572162
      1966.18518254
      -215.61566830
      761.04931563
      -719.18957279
      -215.95777914
      30.35738787
      4056.36886000
      127.89104837
      -448.66627082
      -1104.38302018
      -1502.09687814
      647.05915930
      -200.79245384
      -479.38801339
      -2221.63557289
      388.04855747
      2040.89570223
      -1469.84268892
      -577.13976034
      -350.03352812
      583.84270286
      -519.46426710
      427.41996874
      851.59419107
      7221.54413860
      5129.97046887
      7547.08455870
      672.35882099
      1746.78304921
      1381.96970076
      1160.12857917
      73.31819524
      1879.63818534
      991.78712163
      1308.29079347
      4408.15770413
      776.18999791
      4020.52043628
      3034.79693639
      6592.75567212
      1665.79678590
      2804.34223818
      1111.30625706
      1265.01019585
      158.07434004
      709.00659528
      2918.61295250
      3268.37493116
      1147.03835134
      819.49242569
      -265.15211129
      1235.14200706
      4561.77682847
      2785.21654316
      3631.42559380
      2466.08707760
      -469.52466381
      2743.90797194
      2711.22037674
      385.48439184
      2166.77483240
      376.04459371
      71.75326333
      2182.76499899
      -335.95896310
      1654.06570309
      -117.16096514
      306.11220670
      -1900.90396981
      -440.05540615
      -1321.48818633
      -354.96781818
      786.82816581
      -1084.12568133
      -2728.50924800
      -436.48896546
      1330.91253076
      456.41276677
      1220.48139530
      -812.86311531
      408.48803985
      176.29986930
      444.82002696
      -445.80763075
      -165.71616596
      41.42879436
      223.33461256
      3942.22182779
      6116.61074045
      1838.18708506
      -5004.10659912
      -1385.07685211
      2649.80112196
      3863.84067702
      3290.42115767
      764.59443659
      929.57350342
      1276.52912703
      1827.59205658
      2112.69322479
      988.25664857
      4806.13926758
      3583.57012740
      2848.21660635
      4132.07887424
      1071.49496353
      5013.41191305
      4604.56802347
      2199.44496006
      1290.77983506
      668.93469429
      1658.72735416
      -962.03482108
      -567.93611476
      -453.99882572
      1738.10781476
      514.25428963
      1506.96003844
      -32.60821196
      -122.16838346
      -1242.86219819
      1893.23340038
      1372.21257149
      670.33586328
      719.14018346
      -622.49698080
      -157.33438201
      1101.54436998
      1654.77704217
      1612.43663164
      1090.78287883
      4518.54790011
      1812.82580068
      -108.96817000
      -1993.28710462
      -763.21243456
      294.06640645
      -671.99307960
      -1063.62980277
      -82.24292612
      236.39560962
      -1284.57093382
      605.65012891
      276.53868581
      1193.56289576
      -2893.50915640
      -1656.92788522
      -1762.65562380
      -1906.56741233
      -938.01430207
      -44.62682109
      -624.70859873
      39.17864394
      9082.24918555
      -1429.18483087
      6888.24026915
      11456.69263513
      5033.76809891
      5272.55932935
      6110.34501830
      969.73727438
      1531.07662908
      1233.99041485
      1862.91912930
      3772.80591233
      -2467.77974260
      -1467.26987289
      1913.64775469
      -3968.05049263
      2460.77622559
      1873.77819541
      1931.89995199
      2275.12085416
      3887.78219758
      2090.63884162
      1888.14091234
      2464.12662822
      1268.29405863
      2685.74274956
      4364.09537019
      1642.84732279
      3049.07179724
      4773.58014979
      2611.30483684
      878.81000048
      526.30784282
      -21.56425846
      -484.71898673
      -603.78962561
      1257.31631192
      76.82234870
      -1166.54168547
      1683.63412546
      495.22835166
      1738.16686030
      3213.22441281
      -848.14439395
      952.85532987
      -1206.74850543
      2353.50506075
      1591.61904529
      1241.17913780
      -4996.64257727
      -1904.33842065
      -47.15393938
      -94.62241505
      1626.68983159
      1364.32677693
      1744.86141304
      3267.62887620
      113.49908476
      -184.40166760
      117.36478895
      -223.59058531
      -5975.58636439
      -3869.16949593
      26.46146494
      -476.91581794
      788.59425968
      -17305.06999468
      6130.85936522
      3786.75429390
      3329.67427683
      6152.75800002
      2333.18441514
      4990.62056569
      3370.91165683
      2738.38291606
      2629.89143089
      5843.99790553
      3963.13213238
      1581.35596565
      1440.27711415
      6476.51295373
      2011.71270249
      4706.07876001
      6170.85859410
      1949.54540415
      5345.17173070
      1252.08042981
      1103.57923762
      -1560.57956392
      4949.25903047
      2163.52666375
      -3861.88357609
      2757.69596661
      269.97641618
      278.99493372
      -3.27447671
      691.05168036
      -3024.37991772
      372.26017873
      5262.53041934
      1567.27365224
      7597.81006484
      2772.18237459
      -1471.34073644
      8013.75336306
      257.34029503
      497.40548197
      -2399.17153034
      2142.59263547
      -2886.75437022
      2945.50378451
      -504.62825016
      1128.11310319
      5518.68258096
      2449.75519124
      74.78699126
      1667.14731678
      -679.97330033
      1095.17948151
      188.59662524
      779.49756014
      789.60835915
      611.62383571
      2336.12550615
      1983.54718244
      -284.17029113
      2266.08277805
      1739.62245139
      -1299.69756425
      1055.08697923
      -972.42081873
      672.01461815
      -28807.02041058
      3715.64374001
      3372.79195071
      2567.59396948
      6230.90210629
      5079.05398574
      8296.66552530
      2861.84621440
      2862.98267683
      2274.77572323
      3848.04287447
      2068.52813962
      4976.82701876
      1108.75022140
      -912.36107025
      1613.51529434
      6113.18904352
      117.58194360
      11756.32782469
      6184.28999691
      -2017.69227870
      2879.80725465
      2290.19058723
      5906.96369433
      642.49921960
      398.85106059
      8433.35161129
      1735.52766761
      -2013.93392095
      1164.63527249
      5782.76584174
      1938.80257051
      -1140.47326018
      1239.59408505
      -1487.36725137
      -903.66284762
      -1426.34050025
      236.40893643
      7432.94283497
      -299.42073887
      -226.89844436
      2965.12672881
      3981.23994380
      -3316.45166834
      -675.34858690
      1448.26583106
      1044.76813061
      1824.92644402
      3327.29606438
      5545.71554321
      3494.98877362
      1493.84620519
      -254.31258520
      309.11833499
      -599.65440151
      -812.14296137
      1692.33477922
      2059.87471764
      547.71238248
      2012.62609225
      123.07041423
      -1377.39606429
      -4240.43607855
      -594.11005685
      989.03447374
      33.22060763
      8004.87602004
      4164.33429067
      2993.17815543
      1243.86959814
      1984.56261634
      1678.74084402
      8093.96671818
      3287.53343913
      1420.77178754
      2271.53604969
      2666.25036830
      3595.29124552
      -44.78412781
      5855.44289287
      2235.40922994
      1932.90951456
      7681.25612772
      3551.80556387
      1956.60146358
      1995.81437224
      -1216.81816702
      4694.59933638
      1113.17246975
      1250.08943901
      3957.59419010
      2745.95578515
      1653.32754446
      2366.89121914
      4896.41928786
      -141.10990314
      5159.55655735
      4427.26460340
      1606.19245459
      5033.56888485
      -998.09175193
      1791.27313392
      -977.64532644
      4524.12654902
      -1000.23045049
      5149.93734404
      636.23143554
      2513.19036714
      -5147.21485531
      1808.87571258
      1951.42555520
      3183.88086097
      5746.30956478
      -4119.01088450
      3786.69710863
      -1044.77256415
      2692.55825418
      3356.32829661
      2713.94816731
      1309.89079223
      526.40470662
      2505.63783801
      2882.16230468
      1594.25620302
      -518.27963106
      2375.26560744
      -896.33692276
      2868.18152029
      -2975.07081674
      -1047.08853722
      -393.60665479
      116.67639589
      -18063.76538625
      1702.07590612
      2319.14657867
      8244.15415015
      6490.32091506
      4658.60805416
      2711.40405178
      -2571.10403449
      3818.66402067
      7147.97116906
      6278.21578464
      1037.91199422
      7953.68257489
      -142.20714760
      485.56499762
      3117.93466767
      4666.17203983
      1528.34943709
      2761.40633324
      2828.48997591
      1681.39155800
      840.35650824
      2623.72796199
      2375.88486245
      39.17319257
      4454.20820792
      2097.63985584
      3386.05037310
      -1070.52013653
      1208.99533434
      7403.73588126
      3246.14819312
      -1300.79625881
      2959.97150454
      3309.77475864
      3780.07663587
      5941.94191961
      2362.87924914
      -3681.26359442
      4789.13681363
      2739.10255558
      918.16642340
      3922.60046000
      1736.17924326
      903.07167713
      2022.74694425
      901.91865228
      1988.79090898
      2680.06568292
      3962.19032981
      4459.89953781
      3310.72097461
      3530.58182528
      2843.63263024
      231.00631404
      1022.33871838
      205.03984230
      451.87542252
      -156.78620368
      1735.02325637
      498.59505823
      1367.47559206
      -446.66525816
      -596.24931172
      979.50608269
      573.93651736
      -35532.71009678
      3330.47688408
      5072.21334438
      5295.02009725
      5395.13137869
      12556.70495796
      4252.55094752
      5135.23764505
      2785.30786910
      5264.14500727
      3570.87412089
      599.61989330
      5118.40690913
      -253.57660574
      1490.80011952
      1436.61146500
      5649.17129568
      668.83332454
      2969.53772545
      5456.81991096
      -1421.45480795
      13593.49955861
      272.16414472
      5167.21023478
      -665.20638528
      2061.21471174
      -589.05492995
      2441.57291623
      1667.61527556
      -10848.95132958
      5791.68459903
      -849.17918740
      -2267.00353632
      -2614.49234988
      382.48141754
      1828.72635676
      513.06456114
      4894.39898619
      -285.33195848
      943.46943850
      2082.15776439
      -129.98854291
      2259.43220577
      2942.68835073
      1336.27520378
      2769.16023655
      2030.13789341
      -4253.67046318
      4221.74127475
      2919.73137616
      529.02499828
      443.70144647
      -378.36121763
      1682.28593355
      5716.56985460
      108.88853778
      -2695.84804414
      1520.27339888
      -2873.10368158
      2970.44674789
      967.15405915
      2354.73113929
      1537.20996712
      182.80173848
      -468.78828110
      609.46678335
      -32327.05726218
      9777.56568942
      8231.79805977
      3851.57296413
      -2708.35786525
      3166.13629813
      2571.00053459
      7284.14500707
      2450.90117638
      2011.98170686
      4302.14260595
      1345.93468502
      2451.79288490
      1551.72860979
      2821.16935479
      1118.67067483
      3070.67390801
      4988.42500253
      1193.58802293
      -14.37058967
      3418.05368470
      3666.01308059
      -3394.97094598
      -619.72726030
      4185.60988008
      -1711.82526383
      1750.43493663
      -482.40781863
      1658.63166852
      -3877.01265904
      2044.12099723
      3050.76499370
      -377.65632064
      6413.19952012
      2070.81563238
      3029.81047848
      2471.80976877
      2325.09233536
      2040.05698378
      4818.34438286
      2743.48734836
      1028.69674919
      -4299.33822740
      906.18298059
      -608.16573002
      2075.90817889
      -3368.39041577
      4980.81410933
      7172.69795111
      -2222.60034410
      -3146.02480090
      -1649.26271330
      -1025.24450775
      3565.18264606
      -928.66250502
      -830.97020769
      2896.26958408
      -3462.74892555
      533.35308543
      615.20675462
      1070.67774187
      3003.63622940
      -691.60392839
      691.11629579
      870.09391959
      187.44413187
      4394.79357680
      5659.30521430
      4725.63174010
      4534.48037983
      -205.99544403
      6539.37473917
      6950.20629134
      7465.59259143
      2779.09729623
      1554.70084093
      2230.02054447
      2495.43110584
      6294.26517134
      1228.69511296
      2767.97582670
      -831.33637644
      1811.17556886
      -437.10954675
      2118.24596942
      5945.09095494
      544.20055140
      1986.95866183
      3106.00369216
      937.03919680
      1562.13628407
      6815.03072133
      694.28241202
      335.99923413
      1002.24263782
      930.25783301
      2083.27257237
      -1472.30677076
      1124.59239748
      441.48706527
      3535.82105510
      -451.35309835
      2659.26698721
      1773.57994605
      -1556.47431228
      1519.31196503
      885.67650925
      1856.61296676
      -1540.25457574
      1853.47379505
      1161.18149911
      987.60712941
      -210.35564651
      1513.43656459
      1240.43646630
      61.63016940
      2701.48451748
      2003.22576209
      -380.18706941
      -1.91967759
      306.77834255
      -76.78648934
      514.84005299
      1570.27223025
      -180.03625755
      1543.39531949
      1767.60887862
      -907.96559503
      861.32804337
      209.34612832
      -269.73418977
      -63.74129837
      9073.48472450
      15744.10499065
      5831.65461968
      10101.45991187
      3877.84242466
      26.42925790
      -287.59397344
      1890.57046314
      4727.45452979
      -1592.82075830
      1909.11806047
      -140.96994232
      -502.88437867
      975.00126605
      133.99747735
      1416.26972937
      628.27098978
      221.90722985
      -819.17553887
      -1646.04460551
      -1025.18408335
      13090.62554897
      -3002.95434453
      2532.08941974
      58.09808921
      1958.06157901
      2279.33383995
      1426.48243293
      331.04393307
      3539.00830041
      1678.98220839
      1788.02748197
      2888.09809767
      1484.67597479
      726.20174311
      6666.30630460
      4766.07368126
      1070.69868951
      -234.70941269
      4327.87155732
      -222.95616528
      5191.72153635
      4057.03175003
      23.63331312
      -1020.43211625
      643.28669391
      -2574.12016605
      1816.71769721
      -190.12200581
      -297.86519935
      2342.59326842
      584.32462509
      -1887.47865662
      2957.78486281
      -669.71846483
      1540.55117821
      -23.95853450
      -1142.72547688
      -123.21228093
      1070.46871426
      1826.10498585
      -1826.86145246
      -1084.43150884
      282.71201371
      874.50789963
      2281.39700345
      4492.46523224
      4702.42807742
      1700.22232646
      8285.75625375
      1519.09898883
      3532.37734305
      6934.74370380
      1558.96471943
      2603.82026241
      2894.65979766
      2063.97354241
      369.82218572
      -1938.35111811
      2688.83155203
      2814.75073042
      381.41811612
      -551.38438040
      1790.98449906
      1405.96045749
      3016.84184875
      862.09670142
      960.31308193
      2822.66898296
      4323.15904098
      346.00947757
      1023.38453881
      2460.48225954
      897.76986743
      1246.52757848
      1805.40433186
      820.53781497
      2397.63055276
      -192.17055525
      4892.28624489
      778.42202939
      -86.63489955
      1407.99324071
      1963.23347962
      845.58206923
      171.66199095
      350.24864692
      950.60356348
      -396.19914011
      998.29077275
      662.75878244
      1679.12112142
      1864.98171341
      1744.92266845
      545.80021044
      1995.89391443
      5251.49624437
      1903.26264395
      -3442.37756589
      -1638.90348846
      276.51790948
      957.63694131
      979.77746640
      1939.94266790
      2823.79480978
      -397.94099991
      -4956.97789223
      -1818.50390223
      2257.55395705
      894.38131966
      1300.57124270
      745.10834904
      5407.61606703
      10639.61609377
      9019.89376349
      5573.08025646
      835.48903297
      2525.03325242
      4117.40069972
      7143.97449721
      7520.60890712
      -670.71405228
      9158.62751820
      2175.86279657
      -14649.73269952
      -382.09730015
      1880.34187085
      4848.70832676
      2787.56711482
      9841.86088257
      2172.64784911
      1075.24771932
      3248.61742658
      3347.24803823
      6929.79563175
      1768.12923900
      897.34980457
      2979.62323307
      6345.88741971
      5736.08930662
      6429.63744867
      8796.67613381
      -4368.44762178
      564.25962843
      -2460.90288595
      2956.18068648
      1624.05331049
      6260.15951698
      3323.00513583
      -110.12698593
      543.22036508
      2608.54382064
      867.18530637
      -12.90802412
      1155.15748331
      132.36934280
      -570.48392194
      3199.64201195
      2516.34335247
      -340.26577291
      123.97743185
      519.64984966
      -556.02233335
      3465.85706099
      1682.18063356
      -790.03451475
      -1320.75535875
      -938.08489308
      342.12272363
      -782.99009876
      -181.37120345
      573.19170229
      1288.53356550
      -438.66303881
      723.86923411
      -330.38918965
      88.42157206
      595.04696596
      4642.92475595
      3735.23211073
      7092.63137399
      3164.44862945
      2965.60210252
      6702.94587781
      2368.56276703
      2163.12991280
      2321.59360289
      1164.45544297
      351.16759494
      -2466.51885989
      5253.12017433
      8034.86690374
      775.51379606
      -86.70758407
      11320.48962687
      2485.79115371
      -4262.27569017
      2832.96723672
      1649.66091349
      1475.14556873
      2920.36145828
      11281.71954605
      132.62410629
      6967.86491282
      5179.06690474
      -150.43918588
      -183.79298051
      -675.92769033
      -873.00174033
      1833.82129405
      3693.25693392
      3573.86700860
      -411.96680377
      1970.51382746
      3966.27913503
      2754.33790089
      2144.82242313
      2104.66572422
      4921.33369740
      1511.27043024
      3653.29252248
      4462.14222088
      2327.46692308
      -2566.12195852
      1950.46761975
      939.52961543
      -610.94689228
      1558.41184715
      687.87131255
      246.64504185
      -404.93329869
      945.43560956
      643.39160253
      1272.31487545
      1113.01025452
      916.22237671
      473.96156102
      727.40015022
      -346.13442629
      -28.72319170
      773.51334365
      -1473.72496796
      -156.37915222
      188.86268592
      4240.87309669
      -5659.71338888
      15343.66297216
      3227.90180792
      1438.04687812
      4936.92474658
      6045.28850725
      1165.38105213
      9919.15745335
      390.65143857
      1273.49558669
      -1545.34209658
      2723.72243134
      4860.54130765
      2516.48201954
      8310.35668813
      3320.97925494
      3590.43696212
      7879.15805018
      5889.16113524
      10681.94044538
      2580.67303297
      795.52021899
      6548.18825976
      4814.75213074
      2713.60853536
      5501.31125504
      4152.16162668
      4879.71924872
      6461.93708131
      3721.75374794
      6697.22323082
      2869.44431480
      579.10173036
      1398.89775765
      7901.48605490
      3738.27210444
      2416.16712431
      3456.19919385
      1812.91799383
      3149.03104239
      79.36823659
      -504.66884190
      2414.02173847
      1576.74543117
      -2563.81210901
      5233.86125561
      -746.80968070
      -832.45973905
      558.71518947
      1056.96286885
      -758.59108436
      1283.83753774
      -106.22553043
      1417.80568196
      388.03734240
      639.12303701
      1514.61294314
      1002.80305310
      -2080.48811658
      -820.14571652
      1212.25676801
      968.24989109
      512.55333994
      378.52750917
      -1156.29974521
      1800.10396647
      6312.53908817
      8712.98523550
      4220.55480376
      5671.87125139
      3116.54403015
      5718.26025408
      5791.06910572
      4677.44606238
      2849.19792821
      13004.07256580
      3242.79218388
      4764.52403378
      902.84953584
      2261.48630369
      7081.46042733
      3936.59112442
      -1936.00665748
      2093.36716850
      -211.74765297
      1701.71857011
      3671.55496099
      2638.23338787
      2489.36502403
      1542.31283379
      5442.21554251
      4878.41156851
      6443.05371808
      4273.37950389
      3690.77873896
      968.99770878
      6.41125614
      1863.95757313
      2969.70322136
      -1346.57735085
      3581.83759384
      -591.12859861
      541.81898044
      991.22612059
      -584.45924181
      6933.77472391
      -122.23662570
      5893.76957368
      4245.10033643
      -1219.91057175
      2905.69675840
      1568.32134315
      912.58946683
      3579.15435423
      1918.29015002
      2366.59297502
      4038.12684619
      1324.77611678
      1321.01495468
      456.84744389
      1973.05753217
      593.10126485
      595.11179393
      884.47604019
      -1884.45697061
      -922.22571443
      261.18012819
      477.60005928
      718.46062327
      721.19959486
      -82.09938110
      2663.38191833
      -1171.46358688
      6368.26403685
      4153.41069963
      8249.85969405
      5080.33669858
      2115.63266431
      2925.06475036
      2410.94131919
      1381.31002063
      3426.62073605
      1227.62805115
      9964.30107897
      -4701.70147913
      4907.88848930
      2972.13170580
      3862.72209856
      4908.87532180
      11526.28923322
      4791.83119687
      255.04597044
      -3096.45209124
      4723.07254357
      5009.01411054
      -1005.11132913
      8019.56017219
      5100.98670520
      732.76038711
      -742.46764507
      4066.22652837
      2676.08295570
      75.74458650
      730.22917933
      1849.41985217
      817.10314079
      4930.52312115
      -456.54450485
      1112.36477474
      -1389.49537946
      3601.82490723
      5687.30386576
      1849.23261468
      1993.12329203
      1137.96458179
      3059.31684587
      6010.76834051
      -2051.07835878
      3715.34027337
      -4714.32808438
      3167.08267264
      1359.55888564
      -14.57003328
      2129.56150750
      3351.39933334
      1472.34585450
      -1379.32702242
      1510.60434899
      611.18453771
      324.75630852
      2254.32335157
      -376.96689021
      265.14783992
      1038.46262505
      419.77732075
      -79.80341414
      537.59376190
      9170.94982461
      6188.41489168
      8271.71222646
      8232.10867121
      3588.70997391
      11392.26485335
      3126.28422241
      7271.68863736
      9752.08598761
      6322.22366522
      2098.23445117
      4595.90429608
      8482.65904031
      3133.65657296
      9016.90809384
      2530.31344274
      2445.35029212
      3344.96385414
      40.47750183
      -320.57401428
      -668.52669227
      -1398.99992137
      1694.57486464
      -991.81494633
      5106.08604480
      6489.17894549
      1124.50133400
      9241.73498290
      2164.21618145
      1276.44667763
      2750.96696396
      952.82380154
      218.83342586
      1005.20904664
      4506.91146696
      6964.14082124
      -1913.67195635
      -3149.75190037
      -2448.60552242
      2239.21226680
      1587.90269588
      580.05528183
      1699.36499112
      -885.90628441
      139.09127387
      1459.65446189
      497.01596968
      -1807.91181662
      1049.03756068
      -1344.86263020
      -601.23550472
      -229.68098293
      2617.31091152
      3055.04736581
      2516.50985222
      1051.37852694
      1577.48946278
      5.32449643
      -356.85804393
      919.46195623
      1067.17158887
      -97.59903867
      -943.11205747
      -866.83863864
      330.88351217
      641.75772804
      -4390.78895869
      4085.45405698
      4225.90001050
      1580.34802578
      1127.74425524
      5918.34477290
      -532.17474361
      4466.18746706
      7530.92853827
      3810.56078501
      9215.94036653
      720.87152448
      5130.97064173
      6651.45054551
      2375.65748220
      9877.09406841
      6597.32000553
      385.71037122
      6453.87014854
      3989.22561659
      3586.39042951
      9480.17750846
      -1402.84799684
      9793.93209085
      7125.87764194
      3099.77203848
      -532.37357087
      55.83478127
      5408.61547447
      6281.60576627
      391.47935046
      1395.47888241
      1275.94837000
      707.72640455
      3283.06855874
      1444.10333604
      -1154.29857186
      5240.83273583
      1954.54527849
      495.64019936
      -218.34892160
      4711.89322756
      5185.01173828
      4723.88730137
      1045.55876509
      63.71711817
      -4109.61241001
      4207.76737192
      6296.79735340
      -447.71736100
      478.16209808
      1185.60818688
      -1808.92003329
      -940.87635302
      766.17288834
      -2056.31161551
      350.52836720
      663.41262834
      1532.39081531
      1193.75307323
      -204.03331070
      427.03160177
      39.88682142
      446.01236238
      591.61632693
      1311.37952612
      -19965.59071168
      5019.94741565
      2838.38923290
      3716.50879926
      2404.95235174
      3616.65324034
      2650.69414043
      1533.54742848
      581.86739186
      4905.37545705
      -571.08081963
      8412.78399098
      10496.26901673
      -9192.70430019
      6728.68107853
      8686.64977487
      2514.87157435
      1831.61474013
      1781.43328874
      288.04804007
      -6934.15784255
      5416.23177272
      -4157.02145741
      8504.90691916
      -2431.70840758
      7818.83096183
      -470.42760655
      -574.07053493
      -1169.58190132
      112.57757325
      1459.92419260
      -1223.36616518
      1550.05893139
      747.46112915
      2932.42221699
      867.99517825
      2295.18301580
      397.26681111
      1431.09445718
      -720.60109145
      1925.48200113
      -1532.21532538
      3891.84512850
      -4133.92465554
      1594.75118398
      1973.41879598
      4408.53626367
      1494.37116612
      2341.71799877
      1540.59297258
      5672.68131420
      -1117.36616904
      -2719.15839729
      2029.06294662
      1078.21433746
      303.03855449
      -1093.59107466
      -2575.29243264
      -1434.48424714
      542.15265406
      2113.59247511
      391.78024927
      549.79988224
      1330.47928713
      396.55987324
      1616.75936725
      -20679.69231914
      3356.02545876
      3356.24069114
      3174.28943487
      6417.85208590
      5397.73858294
      900.44021502
      2061.70326120
      4041.30640631
      -13566.81954614
      2844.86679745
      -5420.47650908
      -11955.17932281
      -3549.87744587
      -8760.39543685
      9235.08477633
      1936.11204847
      2425.31990027
      3767.82926621
      3756.65455043
      -2603.25687023
      -693.71555072
      -1962.50039499
      -2062.26892401
      -5616.93583534
      501.03462101
      -3132.91993497
      -2536.17598808
      3229.57915980
      322.96842477
      -1412.02168878
      -894.04474837
      -1264.15581033
      2801.18185357
      1111.96092688
      3774.96125919
      -3506.74106008
      2815.85786478
      1701.27762597
      2803.59381799