<?xml version="1.0"?>
<VTKFile type= "UnstructuredGrid"  version= "0.1"  byte_order= "BigEndian">
<UnstructuredGrid>
<Piece NumberOfPoints="5123" NumberOfCells="5123">
<PointData Scalars="Pressure" Vectors="Velocity">
<DataArray type="Float32" Name="Pressures" format="ascii">
      -1020.39754943
      3456.96748313
      3814.90951475
      -35561.77368429
      -25076.91863939
      5286.24941627
      -20482.92742986
      -1104.30327669
      -4235.56471191
      -37979.07088609
      -2050.72647426
      -24929.46055353
      -173.41206894
      -662.17379331
      -24289.64383439
      3058.04140531
      -28172.76905675
      -505.06554659
      -1940.05550789
      -19896.22698744
      -583.78611251
      4125.96660575
      1769.89325952
      -2514.06105466
      -74.25768915
      724.32061689
      -1145.60296746
      129.97874824
      142.78873442
      430.55978607
      426.36418730
      1358.95385761
      439.43661627
      1259.37367426
      -1536.96624340
      710.32195052
      412.96600377
      2467.66032653
      -1941.47208041
      -238.94352200
      1118.09315237
      -245.48615724
      -633.02163299
      -714.95423543
      332.06076560
      1053.57286412
      -344.74775526
      -86.80677055
      309.20869308
      -862.89399157
      790.11410309
      436.50054751
      758.75690592
      716.41038998
      409.56400899
      501.41370938
      58.44804501
      37.71358810
      906.17394799
      382.93148910
      45.44697714
      415.44105646
      231.74746273
      -429.42297925
      -322.75641480
      -1499.49572038
      4400.30237986
      4560.55788897
      4281.01679812
      3612.67049395
      1399.70285547
      -464.50043887
      -631.64651536
      1852.87872636
      -868.67164850
      1333.44621020
      112.90524015
      770.01197922
      1558.35480742
      1092.98846417
      -955.60650283
      -78.02343967
      5838.75252478
      2669.51214403
      -4310.65845323
      3761.61263002
      629.55317752
      2689.00498567
      -132.85095480
      3771.54645660
      3319.84529950
      -315.13412253
      301.12543669
      1027.00911354
      563.26401285
      4000.87535852
      639.44790010
      -1197.39421337
      341.35921535
      -901.66482390
      -358.86004761
      -3164.04949634
      1842.59173551
      2224.32329211
      -1725.19921468
      2395.24809953
      -2384.82119021
      245.04364877
      -848.38674420
      448.71786738
      526.96714386
      288.74219978
      563.21298010
      -887.17943482
      -1301.01838931
      112.24510945
      449.19756602
      -338.49486815
      356.95451842
      819.05702269
      182.44818045
      -112.65222053
      58.65686037
      -23.20054999
      287.24680397
      -118.12315678
      970.51801340
      936.76892490
      686.96284492
      1261.92461772
      -155.21021539
      209.90751064
      7945.87145773
      5919.93161943
      2053.80126677
      5118.14708824
      4747.35072331
      4414.52213554
      -3312.13481030
      1404.46601508
      1511.30903292
      898.10042822
      -36.24582910
      -436.32379515
      662.48629008
      1514.69871767
      1150.95258235
      2128.44146336
      5209.59052672
      2873.16293729
      33.93008342
      -1198.25486334
      1389.75233762
      302.52181971
      -548.09680261
      2051.34884094
      1907.41596167
      1406.41834260
      2291.37009418
      -401.26661720
      2938.72403414
      3106.65864383
      2538.91853566
      96.91546225
      -731.72603979
      1037.08069128
      -455.00921534
      1520.67382263
      1765.57048539
      1292.17570740
      82.74207338
      2260.96441005
      -620.66733852
      -181.52305159
      2030.71300776
      -1910.22928915
      1831.72434443
      -546.83951496
      632.23791102
      -3586.61264243
      -490.93855972
      -9.60327835
      -417.15071416
      258.65790785
      -897.27647236
      -141.96144997
      -848.44284455
      -443.14287113
      -1510.68201302
      -260.67752241
      198.68675522
      442.36770387
      269.50173262
      72.61684641
      -128.91698517
      -1.96376702
      -629.51579013
      -274.70680249
      4076.02736097
      1540.70434262
      6799.16420819
      4877.50085815
      1299.82117285
      1346.59187411
      3815.25329528
      -765.76472478
      1081.99785377
      -556.82207572
      2334.32531924
      1555.74726669
      739.83490258
      -342.18040982
      1050.61993552
      2449.15582090
      2404.99143173
      5244.72775463
      860.87795598
      3434.54991327
      2477.27269626
      1450.98379015
      983.14536724
      393.02795836
      2123.26100067
      1571.30841814
      2661.75100842
      -372.12161688
      -381.99930248
      -180.10878862
      -184.49015448
      1913.64643340
      2354.30169092
      18.18973907
      905.31201816
      83.41214939
      836.83738500
      1014.15053606
      1431.46547302
      776.11708122
      1341.74006696
      417.41783733
      921.93605158
      1614.49197372
      5821.17351044
      4733.60720130
      -2053.99765340
      -218.05072951
      -331.35605809
      776.47745787
      118.93830158
      266.76284708
      2626.85919198
      2916.22571777
      996.97902928
      -992.08052258
      1102.90812535
      -525.19861027
      410.80365425
      340.27992831
      736.77118205
      -2032.08934169
      -2381.12679512
      69.07818057
      -638.57674195
      522.37906255
      6108.00081128
      -2645.18948906
      3054.92215483
      5452.55202091
      6685.79692485
      6716.83628459
      3781.77926972
      2488.48049455
      2193.66978527
      2041.04834786
      1817.62143506
      2480.84914249
      1721.30853195
      -1562.41140336
      1585.20858661
      -1326.42688358
      1318.56866551
      585.58353136
      1112.39995939
      2708.09051493
      389.84067916
      842.64430969
      1317.94658976
      705.80398826
      431.61416912
      3286.43490951
      1336.81782945
      -2250.28829484
      5274.03161260
      3770.11061559
      1617.23444366
      1457.36587165
      2398.15996601
      325.65461157
      -925.05711656
      -321.70522176
      343.81445996
      560.46531276
      -2563.97050631
      3008.44006236
      -1481.00343691
      3190.14437076
      259.44676271
      1850.95618436
      -1552.55073113
      -540.29627071
      510.17855301
      -1822.33509389
      -1937.25075953
      -1029.36643973
      150.26744637
      948.25046504
      1821.94504671
      -76.26386635
      910.43407000
      -184.13193951
      3613.80354090
      557.62539027
      1528.06945009
      2274.87924333
      3850.50080561
      -2220.73004783
      -3225.42766868
      -900.67078554
      134.62196523
      73.57885499
      -17305.06999468
      5640.31799910
      3414.16647532
      2723.96089725
      3602.61216277
      3452.38233768
      5415.89475305
      1011.72233382
      3183.14362046
      4202.49440730
      6938.21806373
      3721.23804855
      2854.50116756
      1381.47175669
      5731.96564937
      3417.00713851
      1940.82074686
      6021.13995005
      735.05832494
      5431.17099335
      988.62948676
      37.31331166
      -77.55980582
      4380.41727692
      2542.89007678
      -3.58417991
      1087.44999414
      701.34370408
      4910.89794299
      465.91357649
      364.44777378
      1888.16337765
      634.34899556
      4.98893101
      4737.11232397
      1607.58164088
      251.82173655
      2829.22478645
      3304.80533363
      -4341.80371444
      2641.97425345
      84.99583858
      2954.65562498
      -640.37766389
      4434.29734746
      1741.45566741
      1655.61322264
      2335.31689394
      1010.37559283
      -158.26838000
      -857.35437012
      1833.78542750
      1405.55480960
      -897.20355252
      -1083.17553530
      -743.58742633
      -999.10420579
      633.91346818
      -597.59509352
      -1474.77612547
      958.41743489
      651.58023394
      -301.80454092
      326.21614245
      -351.66814429
      397.78651404
      -28807.02041058
      2999.51550655
      2099.17329026
      4544.83125487
      9606.18564505
      2447.38791585
      4821.07315580
      2774.68836677
      4926.56060829
      2641.55284018
      4033.58104743
      2542.40351765
      6871.03551716
      1650.43588633
      -150.85742262
      700.51339467
      1531.98939608
      2167.92468275
      6153.60279275
      1661.61061207
      4268.30470199
      3310.57373831
      -148.49859290
      6456.15105397
      170.52314451
      2142.70633330
      8053.40380832
      1196.33022615
      -1764.52886664
      3769.09260797
      6520.19794675
      2869.23933570
      -1337.60960972
      -529.38638603
      563.97501834
      6093.43021088
      906.88622946
      1118.66512435
      2087.87167780
      984.38540841
      1053.15166344
      3205.94500071
      1230.69722331
      63.64009609
      531.41470882
      1216.37536385
      1468.62922566
      2264.36732723
      -1800.61305906
      2754.85077836
      1654.29213957
      2622.77131690
      1535.84622355
      1913.07594297
      581.51548652
      1052.08050467
      933.91701823
      -1993.31868400
      325.97507374
      -433.90674341
      982.32670963
      -352.19717220
      336.30760583
      3.61859018
      -189.48574553
      610.72142467
      7738.72992072
      4028.38852555
      2779.78643962
      2069.22985543
      2700.29479657
      1569.71889066
      3044.28165158
      2339.08861229
      6101.15469971
      1080.46721124
      -6566.41442765
      2548.37574506
      -6005.86771587
      6144.42644334
      4165.37101895
      2502.00979918
      2574.91337322
      -1676.03884895
      3161.38850532
      -700.70892446
      4290.55184681
      2469.80609518
      1956.00391679
      -770.60798965
      4813.89132546
      2249.55237281
      960.56684095
      1923.39249042
      1779.69191739
      1416.53986977
      7207.79722174
      3420.09812619
      1462.75037870
      8423.34305794
      2177.30642479
      2180.58954456
      -1032.05972845
      892.40056636
      294.78399711
      6436.99324151
      1883.05582380
      -2038.97524777
      1664.99779544
      305.63102208
      -1119.68519691
      -33.71859827
      654.89155621
      -1114.35016364
      7786.55935396
      2526.43319683
      1749.30952897
      2170.47555811
      2582.31858770
      2954.52951182
      2685.05048630
      3648.58904609
      1724.67223570
      223.60734879
      -1009.03658488
      -1.19151743
      1287.69514386
      1623.95077004
      -2654.01310117
      -811.79729583
      281.70786065
      1113.65608658
      -18063.76538625
      2479.49801621
      1569.74830693
      3409.91551191
      5137.28106949
      574.46912811
      1958.78367125
      1178.45572541
      2938.66894318
      3033.40530671
      5307.52269345
      262.63793949
      9039.50492534
      366.86438713
      1456.89298551
      6555.83185613
      4159.45560788
      -82.33002426
      844.88250594
      1686.37770301
      4486.73255219
      -1208.92383248
      3327.64662155
      2216.25965126
      6696.12946281
      1795.89093324
      -1646.93568588
      4449.16782781
      1180.20641285
      3577.71488879
      2798.17601880
      2966.37800624
      -867.17483909
      1448.44809041
      4402.20408446
      4106.52758508
      1466.46049985
      1458.50083270
      -113.78182830
      -1819.43156262
      2560.09204976
      -1681.34992726
      559.50267366
      -1013.80348764
      637.34021127
      1111.13792251
      1668.64550626
      478.30343437
      1838.04661703
      732.61668589
      970.34673546
      306.97982523
      -1210.89341546
      2622.72784604
      -12.72290896
      -158.29746014
      -1514.53292542
      321.26323294
      118.81704513
      1254.87339224
      662.98954884
      2256.08818114
      -2504.94604193
      -765.77309115
      534.92668621
      512.51244849
      -35532.71009678
      4137.78581779
      6689.68693169
      2380.63559664
      257.14970832
      8729.33642320
      4764.39881023
      3885.40837777
      1813.83745604
      3470.04335125
      5694.26915417
      6092.61147862
      511.44319224
      2718.75227601
      1895.24181211
      97.24512294
      2349.49625885
      3452.01268766
      594.18268368
      343.87783008
      8.56187740
      -779.81911063
      5561.63890091
      1556.27262732
      -2058.37410907
      -1097.29477196
      2006.11437139
      931.19953589
      1000.50217720
      3898.10019266
      -2374.38674265
      3952.38800291
      224.61843699
      -1227.70915804
      751.47678553
      -20.44175403
      5485.51174666
      722.38838775
      1125.30114668
      2796.11993596
      -2428.00149936
      -49.08616356
      1244.64150266
      1911.47660876
      1536.14398550
      -6622.88742399
      1421.39642916
      246.12405578
      305.12040977
      1715.14028049
      1633.29687219
      1071.68817819
      833.76734289
      389.48084294
      1377.32162462
      1416.10676093
      -168.84888931
      1391.68967883
      -0.70511877
      4001.25208496
      834.77578726
      -1240.21565557
      -920.79825587
      -801.85254649
      254.21623131
      521.22488232
      -32327.05726218
      3996.51887548
      7965.87051048
      21051.06988998
      1253.12937573
      7358.22193044
      1856.78461485
      2899.76542441
      4896.39909749
      3497.95667181
      1301.95081354
      1968.62697342
      808.88462253
      -463.71314669
      2331.87190879
      2401.80500996
      682.33019789
      4171.97546117
      3041.44141458
      442.91575845
      235.65465395
      4403.64967582
      -2866.94870318
      1816.99105007
      2710.95129698
      -65.52409015
      2088.54421983
      2653.45782207
      987.95547155
      3212.19425325
      4134.25391744
      161.72509644
      395.68727704
      835.37994052
      512.09115543
      2034.13694258
      1149.93009613
      -50.50553145
      4385.50486431
      3104.86257016
      340.84785463
      4404.84445829
      2136.82754067
      296.74607045
      373.02790557
      967.17838417
      1615.95328691
      3314.11292626
      3462.18554499
      896.17899988
      -5521.32300151
      872.42472724
      -365.18285398
      2688.25600567
      -2849.48884637
      -1697.71617903
      -1381.73989209
      -2200.44578756
      -1243.69294076
      1811.68768108
      954.47913347
      1501.85913576
      603.00369686
      397.95585039
      630.74009389
      104.84845235
      7081.14293675
      8841.48360756
      -924.29625595
      6954.99855363
      2901.32593649
      5581.68480242
      8103.59990031
      1716.38872634
      1021.06467800
      2169.36495505
      2472.00896494
      3894.96508632
      3407.03037080
      2542.03282386
      1464.80090545
      1186.93205503
      -1487.11725254
      8207.08138100
      1323.71049314
      3522.22520223
      -673.53026458
      4270.54745169
      5079.00317653
      4959.10081962
      3983.98023092
      -3226.74329176
      3293.17356699
      2718.23864479
      245.78189980
      3370.67146076
      -1334.97389272
      3269.91289749
      2062.47651172
      3187.15114420
      -236.10062032
      2213.48095703
      409.16467860
      -1043.80273553
      333.00726418
      403.72703310
      -165.06394521
      1204.41875194
      1519.44035249
      177.68603317
      1631.14702199
      -717.85026071
      115.97592313
      2141.43984247
      1812.10912249
      -727.01110587
      3516.58233628
      -442.72779400
      -1657.67554831
      3160.78303880
      874.77972420
      330.65147382
      880.37315382
      1777.81874867
      -118.57467658
      894.91108018
      -442.26595710
      540.84285302
      -538.52085337
      -154.53917781
      121.91967158
      117.29830486
      5554.12933958
      6543.60365302
      5614.37940469
      2524.70911284
      8756.44911985
      8026.06702938
      3680.10933740
      1689.20126755
      1149.46759984
      2570.96788068
      1944.81543608
      2459.26070922
      2638.78017273
      1022.31383737
      915.83229883
      1747.69361412
      6481.66361480
      1175.27669130
      1274.00668855
      1527.97019271
      1095.78281576
      7765.46885602
      2315.94035193
      -5920.95308004
      1221.61995835
      1790.25699587
      4263.25349463
      3117.59607153
      5671.15035606
      115.81760154
      4267.05195425
      1162.33209025
      179.32276156
      1167.95098385
      2738.06984171
      2818.84904113
      6902.64679015
      1205.90126750
      974.64762154
      -1800.49765929
      1413.35608018
      2166.43382269
      3663.74744011
      940.93859502
      1436.85092107
      2841.16351528
      1281.15064478
      -1727.54161807
      1858.17299956
      1042.92317010
      -791.78530926
      410.70861219
      238.26653545
      2654.69454957
      909.62118625
      872.28802170
      -645.07804318
      328.79745704
      2.43717773
      1428.61498374
      1335.13393917
      -686.01748123
      -59.41943124
      -179.10252320
      920.42392097
      -2044.08518686
      -8352.65786894
      6574.77381153
      1435.58405990
      8280.76180188
      -922.71617140
      2318.95972978
      2264.30525865
      -3287.46407449
      4881.03870076
      1874.66148747
      3267.24614537
      3455.72759960
      3419.19749909
      -6487.55919325
      1924.62666777
      -308.66218835
      3678.51997597
      7827.41730768
      5639.07948406
      -5264.80904911
      -1672.41122911
      2884.00002545
      1693.68010689
      3081.39671830
      317.29651587
      -8239.52543773
      -2386.77127943
      10383.73013486
      3227.21668573
      2514.52633174
      5978.29403815
      -1987.42360800
      9910.60206058
      4331.40141220
      4886.83031044
      -2313.31777993
      2046.97502944
      -1635.57513377
      3502.49638144
      2105.66234862
      5668.48610206
      -298.80813490
      1888.40023922
      3680.77676343
      -204.76102150
      -55.68027755
      1741.31890510
      3254.24824160
      4935.73081771
      35.30069240
      2174.48931562
      2874.96498162
      -1646.47722610
      105.60630327
      417.01410454
      1812.41330949
      739.44866933
      1956.54958513
      2275.44822970
      2450.85683488
      1434.33303352
      -384.48464763
      -1429.21659359
      1542.76668392
      1113.45289895
      247.23673026
      2349.72369099
      -1493.89045315
      7595.35124476
      2750.03192529
      1713.11022082
      3652.83264485
      4809.58758862
      5732.69666943
      3884.85376316
      2392.87849094
      -308.36190758
      1826.27234113
      -446.74370791
      1418.40111939
      -1646.34887165
      -105.63528126
      -2763.97413374
      7096.14171958
      7316.14843672
      5746.80772202
      2239.38945015
      233.95427531
      2673.59503551
      6099.72108275
      1241.34522718
      6807.66953201
      1614.62494025
      2673.87481438
      3675.45418047
      3378.95623701
      6634.14883772
      7316.30141763
      -61.27796036
      6870.86015663
      2761.75399709
      4330.06501718
      -92.04667825
      4190.01332631
      952.16848850
      162.69198724
      2708.41402013
      -834.85179900
      -348.95494808
      -2495.75482273
      2213.04088245
      -591.80820329
      1629.13433824
      2264.60057431
      -2315.43887793
      1247.75476820
      -137.20966728
      -1416.76425281
      887.47151330
      324.76568209
      2695.48966131
      4139.07563763
      1670.21990477
      1541.40701770
      1628.43021591
      1871.98521019
      459.94863650
      -966.16060045
      -2390.00022955
      80.93638411
      -633.29685598
      -2148.46301367
      4842.73468405
      3568.37753491
      13456.27082460
      3294.32794411
      4061.63343512
      1661.10040093
      1973.38659760
      8337.21866656
      3490.52475802
      1332.90144079
      2306.46409972
      6367.77992871
      5780.32364617
      3112.28660931
      3041.28642054
      7942.38238801
      380.67448573
      2573.05865553
      479.61851308
      2615.11375050
      1547.83381795
      3287.00485284
      -1534.64424882
      7429.29331012
      1732.63284654
      6577.59447707
      1680.57295793
      3630.86445853
      5338.76174462
      2917.92132350
      5591.03236754
      -3361.43438394
      4350.83820067
      63.03585211
      2214.33204725
      6147.82989567
      2132.24575429
      -297.53102298
      6240.38843649
      691.58674199
      7602.06999420
      2389.57358977
      2828.16627162
      4337.04779369
      3984.68768657
      2401.24459730
      3230.51790819
      -658.41816874
      -3710.75811219
      719.59481944
      -1006.24922305
      2463.99463842
      595.98740478
      1174.03207091
      917.28425765
      907.96830571
      -150.14366631
      -497.49762410
      -1692.80540585
      -1545.15740653
      2792.66394499
      477.60296101
      -287.95069555
      -2086.60214293
      100.67615617
      -1397.41242145
      -63.94546208
      3500.96823390
      8327.92500688
      6334.97950133
      3703.08566281
      3242.89024643
      -2427.17717379
      2633.30982643
      5945.25237098
      3033.42836596
      12530.19266632
      883.40016978
      2124.35399805
      4142.21825133
      6112.42758163
      3275.55490050
      7960.11026980
      7067.57362761
      1536.45830310
      7707.58816343
      4617.46923202
      5831.54639172
      -105.26750146
      4218.16586860
      -5328.78537040
      5051.21059402
      2294.62436367
      4957.82884697
      7518.71434531
      3272.34685487
      5042.34361159
      12097.07936812
      1386.43679702
      5734.67336926
      3308.92230120
      1381.26283951
      4700.74680190
      2405.82566940
      1367.90767033
      787.90000870
      2006.94801704
      -1889.06781646
      562.23255725
      -1049.91167637
      -2143.48788753
      3875.54354748
      -1378.88566494
      4162.02426878
      3257.12910296
      4096.97139603
      1546.37939422
      801.68228255
      558.97276553
      1478.42346254
      -762.24667295
      -727.41329198
      618.85144086
      154.44267560
      1079.63567049
      -2189.67128587
      1082.35065802
      -241.35102516
      767.88074087
      -1703.71645188
      8.75243588
      1898.24176503
      -4685.40513436
      6203.13726926
      6443.19249335
      3219.66114660
      4184.10973825
      4416.01317726
      10830.73047787
      8520.04733460
      3587.73113552
      2761.28838068
      4394.03945357
      8924.09744338
      7813.75475035
      1735.79919443
      9685.15889999
      10324.72863033
      3747.81438817
      6273.41220665
      4489.48323493
      1890.86107520
      4030.65153477
      928.57063754
      3934.83814948
      1236.03092987
      1572.34907410
      4086.57033404
      6143.87611532
      8276.86327802
      7901.72699473
      4961.30425147
      4130.93590715
      3929.02297902
      1443.51505074
      -4845.61108804
      2337.60364957
      1673.71368827
      179.05699833
      -501.69842562
      1589.37143212
      5703.54242528
      707.13115838
      5349.73555557
      4028.08119605
      1270.17139631
      714.39430418
      2038.33672240
      603.89451232
      6232.66791780
      1446.37011258
      643.04826864
      -1599.53230908
      117.83203124
      -8.88412439
      1152.89919148
      1942.89734514
      2283.50535924
      2258.57318892
      1636.68503906
      -505.92901621
      -802.52576326
      1060.96597009
      -257.77404586
      -448.55857951
      131.26771632
      516.72261499
      456.14275020
      1991.92474225
      6138.81961810
      6557.25784249
      4503.35136787
      8589.04488641
      5421.76302481
      -212.90103647
      3226.74063962
      756.20741259
      4835.74008541
      4253.27700228
      1370.36489821
      7601.77403662
      4025.69087052
      2464.35236328
      1522.85911609
      2673.59694674
      1237.00726285
      -716.52204917
      987.32971246
      1693.67108011
      -6111.41875039
      1085.09682992
      6760.33969472
      -6856.55439538
      6510.30862294
      3104.01622787
      -1018.15710103
      428.99053761
      8.63114343
      -306.90704664
      1987.60346179
      4692.91246671
      3937.91241227
      2928.77779222
      -2780.35804361
      5772.34972492
      4265.16131061
      -175.03245763
      11905.92471853
      -43.71449491
      17.50216851
      2360.53401872
      1958.13770254
      5194.46139434
      2666.89670505
      -169.68071775
      5215.79318174
      1493.07585183
      -1301.42052276
      190.98065909
      2384.37070635
      -3403.71090927
      915.66581160
      1810.34178283
      1389.73647805
      2463.18417160
      -465.53727776
      2184.87878015
      4098.18146422
      113.91715558
      571.68261521
      314.70217844
      2443.44835136
      457.75988281
      367.31663274
      18125.50459817
      2677.64281370
      1724.80251351
      20925.18652252
      2035.74500906
      17055.98976608
      -7735.07090331
      16322.78955877
      10202.27701633
      2315.95030344
      3172.71059565
      2312.28249488
      11161.07536788
      -1095.49272616
      5612.19060105
      -2824.77355292
      904.76241361
      7320.81626400
      -355.12609952
      253.55104276
      2432.73517358
      4647.05121186
      4637.13385776
      -640.58576169
      881.11974981
      2576.62219812
      489.89059530
      5379.01696200
      -1604.81427603
      1802.75538959
      -431.62718540
      3289.26744299
      909.92613712
      -1213.83879634
      6821.81163022
      6025.90995110
      3078.60714706
      -9460.10747047
      2553.24846133
      4704.40803496
      4336.46072150
      3183.90879932
      6373.45166970
      1160.89681632
      4671.69239525
      2950.61082666
      975.64667382
      2278.74230753
      994.38490150
      -2125.65446009
      73.82717440
      1878.31970854
      14352.55861003
      9065.96837047
      2152.04627452
      -3448.08054147
      3631.16850991
      1473.22479531
      -1603.14097458
      -275.37013032
      1639.09073600
      885.33333720
      -154.90969891
      275.43742647
      -291.26445607
      1139.58334134
      -4670.71407558
      3216.65582118
      1722.58856773
      2249.65191394
      2626.46342891
      16232.23212383
      -590.06653392
      5894.23622994
      1299.62671970
      9954.07186120
      10453.25303784
      5036.32751623
      8238.23033169
      -80.00175862
      10099.81742544
      -5315.39748754
      10972.36622034
      -5471.40964121
      -6860.94084400
      1713.06062599
      -8172.72416951
      -1061.92541631
      -3050.47083535
      4697.60789908
      5331.48420909
      3517.43354097
      1923.77588333
      -4843.04347022
      288.39600019
      2205.87663365
      5532.98570197
      2599.10189106
      -2161.50397900
      2031.83479553
      6918.40928623
      1072.98307590
      1200.50900084
      534.67449084
      177.59906859
      6665.98284460
      4162.38701858
      4715.43063826
      3988.72817970
      -1993.51793709
      9331.93190833
      -2071.32716018
      4446.01880898
      -7512.22613236
      7516.17003869
      1252.56516980
      2373.63031570
      1248.39059063
      2149.08263937
      1408.92764973
      3183.37542719
      584.76230024
      5.14715378
      -645.51974680
      -4148.52254886
      3413.20372936
      317.62331008
      -435.73148529
      -1867.08876691
      -1774.81481388
      -487.96193837
      763.09223223
      -19965.59071168
      2844.76346693
      2330.40932906
      12422.80341873
      16432.74494774
      9782.34089170
      3280.07546829
      3064.49710573
      -24.09663643
      -5035.50601973
      5086.21747559
      14044.88653205
      14314.39436538
      -22527.11627171
      -10524.03771658
      -14782.89072704
      4463.66210907
      -4018.90615481
      -9564.30316746
      2227.06975606
      -13510.28918360
      3961.78296323
      -5623.29849848
      1028.66789324
      -3663.76503589
      1468.56475222
      2783.89763998
      -1912.17390911
      313.63656512
      6325.10932316
      -2050.39736413
      640.91226223
      941.46786015
      4847.29951434
      155.84709887
      -994.51355606
      3547.50375256
      -2801.40502209
      5772.40226157
      -2718.94312917
      8069.94355576
      928.53616662
      -359.12088646
      1990.55725406
      -5863.03202904
      -400.67580571
      -98.90755973
      -2687.43761746
      2472.07014987
      3470.09363350
      1394.69185706
      -1339.31298479
      3485.13033531
      2754.18129166
      -1453.18911356
      9156.60563100
      -9266.19606113
      4379.98919309
      2504.29412557
      99.02374626
      4919.98166245
      3662.80033459
      1672.17671169
      1166.42356159
      2143.17384968
      5149.81144302
      -20679.69231914
      920.45019117
      2516.57070525
      1898.30251268
      5723.76997200
      12061.70304691
      2955.56256153
      6429.81671708
      2483.67358057
      4121.44830998
      -316.02485024
      -77.02466552
      -15010.14984036
      33097.19864138
      -1193.87531291
      1617.33576942
      -13362.27212274
      1062.57539235
      6161.66997019
      7950.89413182
      -4729.37179271
      -1579.12342104
      -5140.01633277
      1280.92643653
      1051.28249070
      563.31749097
      13538.75846869
      -2154.03700573
      399.15444843
      258.86951316
      -269.51327844
      -1903.64825119
      -38.64043713
      3685.64128825
      435.38641808
      2034.72751137
      4026.01176181
      -809.98393421
      382.39633600
      3612.96126189