<?xml version="1.0"?>
<VTKFile type= "UnstructuredGrid"  version= "0.1"  byte_order= "BigEndian">
<UnstructuredGrid>
<Piece NumberOfPoints="5123" NumberOfCells="5123">
<PointData Scalars="Pressure" Vectors="Velocity">
<DataArray type="Float32" Name="Pressures" format="ascii">
      -3967.66047224
      -25476.60680567
      -34439.19559936
      -35561.77368429
      -25076.91863939
      -10662.73288233
      -20482.92742986
      16841.68863087
      17878.29049029
      -37979.07088609
      27106.22774167
      -24929.46055353
      -20183.09885231
      11720.88395987
      -24289.64383439
      12350.79401565
      -28172.76905675
      22759.37904525
      13207.07446051
      -19896.22698744
      -990.74034084
      9566.31346944
      -14579.66744329
      16068.72665411
      20.69525875
      8098.47830435
      8570.11704553
      3877.47211334
      13184.68416143
      5509.88377679
      4293.71996115
      -14904.48572476
      8261.50465811
      15146.49118264
      1928.67799895
      5333.99729094
      2541.20042496
      6933.13110554
      1068.55213301
      1161.99670505
      1297.87627359
      1766.31810983
      1373.39573692
      -3485.20332099
      3265.21387044
      2261.03192473
      -5190.99625709
      -2129.17873289
      5151.27767174
      972.42582327
      1150.29669859
      -1464.27893519
      2994.57507035
      388.00466313
      -2925.12133438
      672.59142853
      527.70856006
      301.57801641
      -937.29102360
      1089.43700266
      -1691.36750348
      3349.95916743
      697.79858821
      -1070.42151688
      -97.43249326
      448.68276313
      5162.05376995
      29124.88336997
      13276.66893434
      8206.94150325
      5511.78914121
      8881.42130628
      7476.49399164
      15166.44427801
      6212.23993276
      8999.14689934
      5562.51587815
      9008.34871413
      5277.77112586
      4992.32368909
      5275.56466705
      4696.92496045
      6473.76425148
      7596.44719749
      8757.89909097
      10049.12325093
      3351.58627003
      15334.65152080
      6943.68188227
      2998.64925686
      6462.82894922
      4603.92731063
      13439.76097419
      11164.82995339
      7748.07357928
      2171.91627740
      4353.59436275
      602.51714108
      2688.68654880
      1798.74809280
      6059.04364704
      7349.53327369
      3376.84796160
      2336.91532874
      6180.00190403
      1352.10111753
      -345.51347440
      3030.27608970
      -354.97528908
      2806.91472954
      961.59847053
      2053.28615228
      2425.46494976
      3756.79671242
      -1870.81427488
      470.49300613
      611.23348512
      873.13028503
      2250.52855677
      -482.86152368
      -1276.17355516
      3319.55685256
      -1333.39955940
      -68.57829995
      -1635.03952922
      3222.27265921
      1747.10459711
      -2599.76851707
      -791.73121117
      -1594.75650597
      -1255.65699579
      689.93053408
      7376.99713241
      6380.06545972
      9017.18164962
      8374.60636532
      9003.85981868
      4377.53538504
      9031.79264100
      13228.11712519
      6042.19666827
      9843.39460842
      7568.05046836
      6189.54895728
      5694.94999476
      8714.15892385
      9076.29123219
      11603.50444021
      7607.05465074
      789.87570482
      4303.85428422
      9614.36310364
      11666.09373631
      8969.54200865
      5554.67684147
      8934.17218703
      9482.01480040
      9108.26030365
      6671.21909779
      4224.52257132
      -2093.04909275
      6098.58585077
      9304.33655559
      6829.17969529
      9377.77063409
      2987.39621660
      12009.75471688
      9410.52710125
      4838.74345057
      3617.66359445
      -755.35796630
      9341.06421234
      5936.34464988
      9028.95697427
      854.79174089
      -2676.59922142
      7574.43552383
      3478.26946188
      4316.39005067
      56.73780105
      3268.10602681
      4664.47730210
      3107.21058704
      1923.80868535
      2557.87817058
      4209.36847885
      -880.20779920
      792.71491245
      6304.43026135
      766.14028858
      3445.94457527
      -445.85928760
      584.82651985
      -422.99770848
      3158.82171540
      -583.83935009
      -1326.61244070
      -255.98273657
      5861.51110735
      3255.46950296
      5719.60247506
      13729.80305642
      15677.87128508
      6139.73462046
      7819.58512461
      151.84625950
      14694.80302428
      -2144.01772689
      10494.06968819
      16624.03379969
      6892.07574209
      7189.58499849
      21180.81684489
      8550.15908991
      16242.15359924
      4154.07796362
      8801.79363841
      9383.05476076
      6840.20666457
      6963.03191146
      7314.66511011
      23045.65289321
      8626.92578439
      7511.74152259
      7810.71207220
      1663.45151439
      9709.68112771
      9868.61237197
      11226.25930647
      4585.55638011
      2887.71542990
      6585.26390154
      9258.98518174
      11378.96329604
      7333.68760203
      860.45379196
      8753.98450155
      8306.65549458
      3280.68623994
      4418.12138979
      5346.73009698
      9452.60301770
      5888.03761341
      5415.77786948
      3604.82312687
      1548.06435649
      6407.82892221
      5295.23162321
      2795.15701763
      2229.17681330
      -53.76275240
      1232.59379838
      4029.16418234
      -753.63794653
      1880.08054451
      1504.72262628
      2218.28833170
      2181.03201573
      4596.50270910
      685.76760820
      1870.01987244
      614.27898807
      -143.99516400
      -736.57401695
      11250.26770659
      6122.05625421
      38072.94467720
      25674.26100122
      9044.46072065
      7791.99551518
      19746.03461460
      24193.60736181
      2080.85630735
      13277.96441993
      4089.42407429
      7277.23045288
      11333.79876385
      9132.77466244
      12902.55936701
      12515.70915027
      8537.92969820
      7325.30034513
      5567.07647450
      6630.30653958
      13657.89779867
      4839.16904481
      10920.20973023
      3994.19232629
      6714.58957155
      13235.51032324
      8389.39806784
      5095.34641487
      8426.40855285
      2579.50703313
      6144.60185510
      8280.31571184
      15397.86641954
      6774.78481700
      5718.79737814
      2279.50256038
      14938.52787363
      5470.99407181
      8126.87897503
      7465.34930402
      2809.41792160
      7799.37206621
      1965.19502292
      8583.26775660
      8319.36111788
      5938.39219156
      3962.29100412
      1835.53667257
      8686.66581170
      8120.96813017
      179.38249348
      5922.59370109
      9888.10774025
      2371.53681201
      -1418.57346991
      2901.75531283
      2183.23814857
      -637.14772537
      5178.82506106
      3936.86442509
      2317.68920847
      2841.40676855
      4531.52332004
      2315.57344314
      -2922.67335228
      -211.42852192
      -17305.06999468
      8566.18021955
      6776.21197911
      8542.23825964
      13132.78800022
      8436.41777285
      7412.44866282
      4897.43063482
      24026.05495683
      16086.36735787
      9988.35285159
      7799.70952485
      -2568.30023448
      8288.95394590
      6985.20398796
      6539.56934823
      8030.54479677
      25300.18968019
      11808.90108609
      10267.89505093
      1126.16334234
      6647.48501749
      10732.68026690
      15088.09717207
      11667.91030708
      14027.39349601
      1964.63167385
      1446.83416593
      3753.52467257
      10019.52903975
      10642.20006972
      9496.06334363
      945.84239275
      4075.79086075
      4728.69005920
      8073.84624183
      15874.88507157
      -292.39011062
      -1361.76475537
      5228.14252242
      6316.12783052
      8917.87977940
      5904.12523713
      -875.35486890
      7369.73964897
      5631.79876191
      9041.60316485
      4780.41962888
      3466.97770815
      7676.31512761
      6080.52398049
      4602.31883262
      5932.92918105
      5426.53123473
      4035.70670452
      5646.26308048
      4788.42945921
      4138.90331175
      2456.46780177
      5354.09351323
      3266.21007989
      2931.14956793
      1989.86988798
      -254.88522450
      261.60248508
      465.20760750
      -28807.02041058
      5502.61666729
      9686.87751921
      5164.94781271
      4919.15916419
      6067.61915693
      3588.99223763
      5064.13906550
      4872.67741922
      13428.43298549
      8958.06114315
      9599.58845290
      7776.95217742
      6950.85886337
      6070.06618507
      7946.73507216
      9359.36804771
      15203.73168557
      12507.16411683
      15137.11369397
      26541.09258952
      13387.59737894
      6948.07783406
      9699.98096310
      2585.38965838
      15624.79542583
      9775.60358603
      9652.19486018
      3666.78201718
      4247.63096508
      951.11967804
      10209.12341037
      9588.23743803
      7036.77910132
      3953.21012306
      4945.05284002
      7731.90335160
      8155.48984558
      11932.36791202
      6523.33855705
      5763.69531796
      6023.28715446
      10540.67322121
      10994.49533541
      6495.56535384
      6448.51903008
      2518.27486674
      4905.26745753
      9606.83245085
      5619.45241334
      4210.88012065
      7289.45532010
      4778.62404312
      6692.38574967
      1145.22705194
      4030.54192136
      4453.67736243
      4095.68517760
      4404.18772826
      4290.79842957
      1799.42611260
      2695.78188424
      3248.43823795
      581.03889642
      911.85696765
      356.10088625
      10795.29218846
      16148.18256341
      9030.47201921
      5996.20467100
      6453.05386015
      6153.77961034
      10305.91179786
      7030.70256837
      11546.16342356
      17861.09716836
      10075.07824268
      16303.46610187
      2898.98884365
      6704.34106350
      7241.34972590
      12906.57964730
      9930.27465946
      7460.63451064
      8436.59147815
      9379.11667975
      9796.51669132
      12101.83162503
      15852.88254820
      9913.80569099
      3791.84936173
      1956.57045640
      7798.62673962
      9955.27168251
      13741.99031887
      6247.57680234
      4728.27795439
      7084.42963597
      1843.44457690
      13773.10794317
      10686.24522601
      9571.44012704
      -215.33939154
      8045.56527166
      6943.80383017
      2568.99709386
      10813.94550922
      8026.65647871
      4861.86023472
      7502.80437746
      9458.51264116
      9447.59042593
      4779.03589921
      4112.29027941
      6213.77368222
      10789.09976235
      3521.32864226
      3717.67910508
      6836.33392866
      4837.25646431
      4623.42130664
      1724.39863094
      3562.95689841
      6692.45729416
      4301.75871534
      4239.09167991
      1099.00565609
      4315.02292460
      3818.20014708
      -277.05616719
      1576.87539581
      665.79481639
      -18063.76538625
      15714.51246067
      9680.81191554
      17468.84844222
      23604.55791044
      3964.44248217
      7836.83326452
      8084.65505757
      20256.44299506
      11372.06980085
      9752.10618041
      13044.52592357
      6857.83521903
      11606.34238692
      14154.93428608
      12249.91823663
      15930.25088728
      6775.10817129
      7056.62451944
      12377.47858609
      10417.10717585
      12037.98985209
      14107.86702836
      6101.93059160
      10029.45628900
      9229.97099134
      7242.29570373
      8501.95990626
      14466.19585876
      14724.10549179
      2605.92215580
      4814.48151301
      7481.91983338
      4176.62183636
      7723.27054925
      6267.65729776
      8167.76062911
      7209.16307220
      5013.17480654
      8716.21835533
      13433.03785707
      7700.96733510
      4963.41136173
      6193.45121748
      6864.83923405
      9396.32395706
      8133.87039003
      5902.23089403
      5132.90197061
      4924.56456853
      10203.84460764
      0.55473456
      5068.08666900
      3367.41115012
      4669.40646830
      3798.53833984
      7641.00676667
      5149.45931690
      3148.93505852
      1986.42207103
      3191.81620628
      2342.79396985
      1592.36164701
      3436.44492040
      -1411.50951160
      -147.14856226
      -35532.71009678
      34890.54943672
      14112.84062136
      14638.32969910
      3039.21210878
      13071.31938568
      11576.94453914
      26372.48572884
      14790.75124274
      7815.23870388
      6859.66707713
      8800.91226045
      6311.24809629
      8761.71081646
      6479.63576814
      14900.74913783
      5948.26490638
      8469.10682367
      7235.23300714
      7506.31382068
      4594.57021197
      8929.28612298
      10386.59692135
      3779.19042296
      6635.73130322
      8204.36109933
      9814.46318723
      8648.55839861
      5607.30486387
      6656.27800070
      7914.01892727
      7624.20871324
      12269.28844323
      10330.69810362
      3959.69929829
      4774.33025654
      1195.94278792
      7322.56267739
      5717.56698347
      3666.15546744
      13220.04597616
      11466.34059149
      5088.19158772
      3952.61341257
      3898.16718655
      12624.97008237
      10298.35798973
      6398.72275065
      6621.46152636
      6142.76020808
      9336.69057244
      6476.12808066
      2901.32422244
      6131.36289807
      6846.83848656
      5089.57419482
      227.87664547
      3655.24841104
      3321.80611077
      333.93199879
      2032.78696314
      2368.21152394
      -292.19804179
      3269.73843871
      -1513.87749487
      -28.97757075
      -32327.05726218
      31669.27187803
      7197.83192554
      12181.46870082
      8201.02990956
      12256.43904676
      12097.10622578
      11238.87095224
      11351.70365969
      9889.37619368
      14739.37466283
      14585.78975746
      5283.92629519
      3025.82991433
      11543.91850016
      15947.71643659
      9888.51579617
      14104.20817337
      7567.09386958
      17305.42062954
      8213.11536435
      4437.37268081
      6907.72150905
      13669.13821958
      5864.67292980
      9280.21824444
      8633.76859736
      16031.13011999
      2451.17072454
      11857.79642686
      11326.67764152
      6503.63361536
      3962.06678044
      9561.74597764
      7539.01045847
      10081.09073312
      5762.21929443
      8091.87164621
      8281.30098497
      3682.90999807
      12394.89292067
      6441.70024010
      9523.86899615
      7051.95266572
      7079.00763070
      6185.79398239
      8153.86774008
      7489.25152708
      3965.08179283
      3919.60805084
      4271.55825843
      7895.99986101
      2989.61355876
      4675.76696323
      3893.57460818
      2281.98767400
      3665.61436760
      3012.06719199
      4391.46793923
      1122.87539715
      1051.32822521
      2772.56142360
      426.99408147
      3340.72560203
      285.56918144
      2115.64113366
      13538.45812761
      9956.99261656
      14813.63628661
      4399.69659503
      6650.05600873
      18745.55151000
      22229.58861909
      19806.30252981
      12793.71436916
      13142.16011710
      9363.03908826
      7767.48424775
      11930.02914948
      13053.32874200
      9725.59698144
      10155.29497254
      12196.59671070
      18334.95681821
      13977.13398418
      12155.22413333
      -121.32722236
      10162.43072244
      11078.79619233
      10627.22921472
      5302.28426646
      7036.13163592
      7146.84775745
      8553.60474475
      5925.79784177
      7493.43582520
      7665.28003882
      8601.47573115
      9574.18303637
      4776.19746138
      5375.08264652
      7826.61915207
      12067.21592403
      7550.31779295
      2170.99757331
      6164.60250392
      5471.56638714
      6205.55844346
      6635.66609581
      9707.67250091
      7145.77462750
      6672.74930178
      10243.75829618
      13773.14685846
      5922.65064320
      4445.91340866
      5982.97711894
      9564.61761477
      3080.25329909
      2334.20468938
      2789.09364915
      5593.95931824
      2601.73444943
      1724.82758985
      4377.35848831
      4326.96847236
      155.21392596
      2391.40113281
      -1184.09827100
      4482.09444034
      2945.16814902
      879.80895108
      15354.82819634
      36310.65192581
      13610.87675966
      654.45393649
      7817.83606536
      2541.68642472
      5077.28167803
      17159.57996367
      14035.91158795
      12711.58866230
      10222.41015742
      8195.91494266
      9240.58997226
      12055.59274704
      4390.41252811
      8273.47678383
      5734.00002953
      9716.21047675
      8959.26223102
      5840.80373896
      12329.42724714
      4125.63363142
      9721.82097888
      5657.12380193
      11100.36081036
      6111.48156226
      5335.25366033
      7743.13040644
      12470.01421536
      9269.41141267
      12915.96205829
      14311.92362052
      11212.39369687
      1327.44260688
      10854.71421604
      11178.23854354
      7701.59404287
      8849.29323598
      7316.94317623
      6244.81472981
      8195.65105515
      5283.35969922
      8678.85678504
      7209.04698487
      6116.00593751
      9164.34532594
      6078.59576089
      6559.57510644
      7074.67410026
      6054.70877180
      4529.48390686
      6064.88210703
      7365.93046581
      2423.11545590
      5178.63780014
      5795.59380123
      3953.23471429
      3085.51852080
      4212.32298963
      3848.28941921
      720.92116690
      2650.83419994
      -1269.03926859
      2156.46682712
      -840.15086955
      609.76471493
      -12849.78027895
      13769.85307078
      16748.60887294
      17507.51815702
      12225.22870533
      11683.74675061
      10928.53812813
      -2838.22714805
      13860.34799573
      7003.53547742
      20333.37826238
      15249.36791691
      10487.84752305
      11307.62980192
      13923.45261055
      7373.20930579
      15370.43589703
      8982.65567816
      -2306.16507632
      6379.11621625
      13468.96978886
      4967.00968507
      12160.45348820
      9776.83566007
      12187.00579630
      7003.84321143
      4719.76337261
      8152.10711743
      8525.82961228
      9881.25332781
      11992.20724232
      7488.25002084
      9582.82674498
      8233.37318971
      9067.90066835
      11533.80478605
      7933.71245405
      9900.64032749
      9566.81071852
      3160.66861095
      7985.82552876
      4164.73453732
      8298.32443905
      10524.53425657
      5304.35390844
      4363.35114466
      1708.46316784
      5608.80468474
      10540.36383529
      2957.06291732
      1787.21878182
      7866.78577707
      7962.32457141
      5281.08661301
      68.81107645
      4262.03526590
      4843.77087930
      2164.15147254
      3035.38937617
      1617.10634189
      -1233.72195917
      -36.99107770
      1847.13619342
      3723.50882159
      -1720.13123769
      323.28300753
      18336.55090275
      25768.43901262
      9127.55843987
      8354.70047672
      7651.99543513
      28090.67736852
      8520.94768511
      9701.16413840
      18113.71960169
      18636.92777216
      11815.94981628
      11642.34678583
      9322.56164599
      -574.90529500
      13730.20831830
      15484.72234327
      8675.87538877
      7026.75911261
      9417.41688635
      1915.01848908
      9039.62568971
      12470.85736506
      7446.35707415
      6138.81631598
      9038.55100397
      8697.00667587
      9479.50372133
      7354.00662696
      9020.51817071
      12026.59794829
      4338.96519891
      7111.77584642
      8193.18863008
      12472.43226716
      5857.36439683
      6269.93078036
      7624.57848003
      7678.75348700
      12003.75789912
      12688.02859993
      8945.76423677
      9842.33632131
      7014.89748837
      9470.60180558
      9312.90970388
      10878.83150639
      5245.79800683
      2224.09177594
      2689.84466035
      6118.82848301
      3928.67181346
      4447.62116792
      6836.62702892
      5396.50326491
      1680.55832260
      6569.32417990
      6387.97225663
      2149.65073827
      2320.48243775
      3916.22166396
      952.54254453
      3114.11558418
      1827.66935224
      2699.51615817
      -663.93548422
      16.36780153
      -14735.91301346
      29055.93979224
      -3051.23997674
      14279.71850755
      18494.32822307
      7426.95445792
      8386.17608768
      10302.70502502
      13193.36950267
      1797.14093968
      1954.29358705
      -9550.49514142
      7622.29470378
      14300.37473803
      7854.47874431
      10046.46572468
      4165.08257191
      5778.73983048
      8414.45907922
      10510.82140149
      11269.84843786
      11625.64511921
      13269.73694016
      10394.33102097
      8188.24841662
      3407.36642999
      7979.52145616
      7477.24461815
      8318.95644381
      6756.37332849
      12244.08948643
      7526.98659260
      9822.13529135
      5918.15727581
      7816.54302417
      3810.59183531
      7583.51467642
      13202.19510573
      7725.66446884
      8071.96241266
      3795.07313973
      3605.16424827
      13424.50466931
      8199.24105796
      6213.07304375
      7888.61487651
      6848.87379391
      3345.34674542
      6807.24589693
      10525.90530255
      2307.48325420
      2984.64507474
      3842.45180798
      4537.81748401
      3989.79577747
      406.59746759
      3666.75106166
      -689.83408124
      1749.95541702
      613.92335332
      689.40390224
      622.63820054
      1740.32634997
      1541.86428524
      599.06688836
      2235.66133975
      13060.06401657
      6077.60223223
      9099.62006372
      14134.21090315
      1402.90300374
      8055.17568885
      14244.21293065
      20495.18154821
      9196.49082738
      20597.42163742
      6429.37219200
      9013.98989472
      8040.37310852
      16502.18604248
      -2827.11584505
      10897.34448489
      2320.39910623
      14885.50572286
      8883.54806123
      8599.53373532
      6522.48292990
      8234.00327812
      11331.17564721
      9183.85744786
      6954.64126895
      7735.42764798
      16922.68853599
      13409.84909020
      15539.85803521
      12357.54118184
      1240.00823185
      9289.84173340
      8938.80531789
      5005.20129370
      11625.29222565
      11777.13686481
      3855.41101266
      6667.23343173
      11549.19061485
      5167.81996411
      3025.72871004
      9131.37836387
      8322.31274799
      788.61535720
      5453.08916037
      13209.23022978
      4162.96186074
      3301.91056427
      4771.38252949
      8256.32639185
      5844.99145792
      1905.55286005
      5923.57677364
      7597.67373675
      3887.04239497
      2063.87387212
      5125.83599935
      3139.30797248
      1272.41110575
      3812.02975246
      5143.49699469
      2099.74841004
      741.71658509
      2182.11384270
      1915.44372890
      2257.90490130
      12511.30571211
      7749.59773456
      10474.98940973
      1970.16430179
      9837.21220644
      29531.54935632
      -10617.61385910
      5499.11305632
      11034.93398568
      10573.78212895
      19604.48388742
      -3976.79157333
      2831.58295885
      18572.35450664
      4479.61760795
      4313.84826556
      5693.64879314
      11742.67621272
      5190.62392941
      12578.41004451
      5092.49920135
      1355.19950783
      15800.61086887
      6228.39357323
      9924.26752312
      2661.95104902
      10900.64381584
      12923.34417745
      7983.96261022
      10046.45690358
      6065.10114386
      4215.56259715
      7843.92171427
      8822.88991621
      7811.72946045
      15423.50485152
      8903.34334009
      -438.08036574
      8622.92947292
      9205.24321473
      7899.29887582
      2382.02898207
      7849.78664734
      8667.75763994
      4391.05273283
      3574.26047639
      6810.71924407
      6582.56654685
      1862.82645829
      8476.69866512
      6023.56455093
      4756.74665769
      4689.39417234
      3689.56849812
      8096.95823212
      5612.59160051
      2256.58766509
      4401.08801964
      3443.26401295
      3613.88076888
      3579.40739836
      2507.62623910
      1140.51035615
      -1609.71684538
      -2582.53076749
      -640.99683267
      -10911.61287654
      11299.07701641
      5062.28108814
      11819.20817905
      13741.46757118
      -7746.73298288
      1266.34266363
      22109.97010652
      3077.85376050
      -150.29575525
      5764.11491754
      9443.96741272
      -1366.69865035
      155.38744127
      10526.29977588
      13853.71721064
      8896.60111074
      13815.84074919
      2120.80528324
      10929.17513475
      9832.00735736
      3179.45779911
      2170.83340974
      7180.12053355
      10854.13938393
      2690.62826207
      8319.39752956
      -320.85012341
      10860.09276772
      4721.90078713
      6137.20317504
      5731.63823974
      6250.20956537
      10551.76296663
      7387.70300590
      4904.18299511
      7748.15032096
      10081.10026243
      4284.42851989
      10808.81617931
      11515.63165653
      7198.14525413
      9247.71969815
      5122.51608899
      4394.63627594
      7460.31610171
      6600.46319414
      4863.51986749
      6470.63969881
      2488.94756747
      2835.64853771
      4039.95010991
      2693.16743761
      3816.46837134
      5513.34304868
      2237.24950542
      1753.89287440
      5363.74483091
      6413.22862958
      1904.06101901
      1110.39931094
      1555.72776388
      -166.78949688
      -792.57419990
      -411.01546792
      408.03693319
      20473.67867389
      17959.96476383
      6.07730136
      3611.40469105
      -12958.30995837
      8032.60033179
      -3554.75655596
      7444.77989279
      -9901.41736800
      24281.06231239
      8981.52998409
      1487.51897846
      12133.72034536
      7447.54140130
      2021.71989111
      11586.73685372
      7375.20222351
      446.45037889
      6464.38093124
      6472.06828706
      8257.09534488
      8802.77533030
      2380.40184144
      12189.13716515
      4168.86834955
      5993.39813265
      5829.75127119
      7874.02854303
      2968.14836469
      14646.90940478
      8655.73556147
      -2233.83381292
      6082.25634105
      4161.61822140
      3404.20805431
      9436.86386989
      4795.06463631
      6827.84497539
      5657.16000855
      4780.66667089
      4002.22340912
      6115.16601258
      8246.32557111
      7202.86430916
      7877.65623456
      8922.22216388
      827.54500359
      4374.86733377
      5319.52423408
      1686.19598755
      524.73153018
      1293.09280639
      5888.99255052
      6932.81832743
      4851.96895365
      4986.62260578
      6189.53505381
      2252.38804781
      2612.71266648
      5460.41022608
      5692.12322394
      7703.56069026
      3647.29729515
      57.39844389
      -298.63602478
      2101.73141198
      16484.64387391
      7604.38444267
      2877.75219195
      16726.70220480
      6868.84985591
      6152.54728633
      -1226.05187271
      -121.21939907
      408.15464397
      869.94467977
      6830.69280554
      8182.90316079
      16118.37270312
      -1805.52399381
      1847.79623357
      16337.01495337
      1766.76733180
      9782.76809068
      7164.91644138
      -2755.54506468
      8578.08970357
      209.08475480
      3102.18970058
      5965.06349878
      5049.01342319
      4781.36309672
      11118.11284894
      7351.45951853
      11093.09066176
      5419.96574484
      3727.09424375
      8219.49195160
      5854.84400700
      225.54720657
      1068.40882673
      1880.56569010
      3611.49806038
      11454.23988377
      5042.47023074
      5432.84088088
      2569.38753239
      6263.04706681
      1892.52056609
      5990.86744252
      1522.82535025
      2876.03716456
      3283.49900250
      6049.34523229
      7696.81928503
      3781.40454482
      1525.20793373
      8805.31346127
      6631.72093775
      1226.96338670
      4061.55100981
      4700.06549878
      4140.50799498
      -1014.76720496
      6361.03557280
      5220.01966763
      2365.78355276
      2657.16216628
      4043.00354876
      -1336.10794707
      -5706.94419285
      671.39403132
      -19965.59071168
      9952.38212322
      3466.98936003
      3939.34446990
      4900.85750911
      -3245.62673748
      -798.26700881
      1582.92494374
      1372.88873256
      18953.16974211
      -22096.03009565
      9062.67951824
      20198.71094839
      13886.54740338
      3837.10196223
      1233.39839139
      11651.25839520
      4884.02522630
      8795.11522155
      6866.01497764
      2707.02386451
      -1839.80221581
      6883.98143515
      7435.09029146
      7291.75466858
      4375.55154188
      -5.33539618
      5557.28690194
      6996.68895990
      8716.97931856
      2633.08821167
      5228.63777660
      4244.43248853
      1633.32664870
      700.12789108
      -1958.45609197
      8015.25049395
      4143.61792794
      7464.98342035
      1341.07438580
      6650.98557500
      472.48302242
      -668.25604414
      6506.59483222
      6428.66547909
      -331.68940940
      1968.71351015
      -394.14303218
      6214.65436162
      5265.10847252
      6001.54282480
      6139.19448488
      2479.64948291
      8186.03698724
      4941.17447721
      4143.99390892
      241.44414724
      6659.45476254
      31.43745983
      1268.61351308
      3227.42587228
      846.27112619
      -1083.33161260
      -1548.08443398
      1513.66893723
      1604.09770651
      -22622.83088330
      2509.64830497
      44296.17574160
      4902.93988142
      8755.81846134
      259.07186152
      7923.54640647
      2737.42935093
      2730.51886042
      9464.09614311
      724.93369312
      16890.39491900
      -426.05322726
      4234.84892746
      1886.41304583
      6073.98890202
      3238.11668115
      3504.79189490