<?xml version="1.0"?>
<VTKFile type= "UnstructuredGrid"  version= "0.1"  byte_order= "BigEndian">
<UnstructuredGrid>
<Piece NumberOfPoints="5123" NumberOfCells="5123">
<PointData Scalars="Pressure" Vectors="Velocity">
<DataArray type="Float32" Name="Pressures" format="ascii">
      -1445.09081468
      3983.67911074
      2990.77822862
      -35561.77368429
      -25076.91863939
      4300.48688430
      -20482.92742986
      1274.44597969
      1115.05206661
      -37979.07088609
      -661.26257063
      -24929.46055353
      998.72965420
      775.44178192
      -24289.64383439
      -235.34353128
      -28172.76905675
      -739.05002349
      1092.96560396
      -19896.22698744
      1186.05829452
      -812.11478659
      225.55848840
      -5093.37662730
      -2252.45635508
      -7609.40069531
      571.23075613
      4894.83391954
      -1979.66851605
      432.11745878
      135.54054409
      -5825.66839323
      -2357.86625849
      -137.97661331
      898.90581237
      -746.96359584
      971.46341398
      910.11253309
      4749.03105039
      -303.04945011
      -626.82508144
      359.42169404
      -263.60221391
      329.96732958
      2169.16706130
      -93.50643932
      1230.11542869
      689.85249085
      -106.60335530
      811.36674355
      684.25220311
      682.79025564
      -2275.44631677
      831.43105296
      -448.98765635
      -1684.30263370
      -200.04339421
      957.63354655
      274.31983157
      1483.54666784
      734.12242859
      -597.21431208
      178.77475696
      751.43886614
      -977.05670403
      1177.16647084
      2598.97032410
      7134.61075894
      1828.70806500
      2048.33271067
      665.60253328
      2262.74693244
      244.43380846
      2061.94718708
      140.13038471
      847.98587766
      1466.42975492
      1418.66991518
      539.18940619
      330.97028265
      2992.23672762
      1426.78113246
      462.64095788
      2432.64377784
      1397.45467329
      -1168.35718065
      4186.44349799
      4348.31928143
      -4106.18964080
      5618.57419275
      950.25135920
      -1825.39907479
      436.55721958
      1803.00525906
      2073.22141016
      -1543.29477484
      -465.21715954
      -1905.96990413
      515.10569892
      996.64007147
      1201.08590130
      -3910.74225667
      1062.02674376
      1731.26938182
      -731.33778803
      3112.08562666
      817.75388869
      -581.41998464
      -3086.71910139
      112.38623609
      512.16188101
      1407.59302009
      188.86139324
      262.58805225
      352.98839514
      -589.73308015
      -1417.97996823
      130.92178297
      1862.25088544
      -201.04081205
      -766.40168020
      -954.68095686
      -362.65897791
      -436.83625555
      -604.26144184
      -117.39739712
      169.62001398
      40.44086517
      194.95167937
      -623.31688109
      177.54652824
      289.61234063
      4289.80601050
      3913.87408771
      522.12596215
      3770.29827637
      4294.29153479
      5631.42579579
      2182.09642946
      2233.68435456
      1435.23119037
      1610.55032409
      -316.17581815
      1073.50829524
      795.72060625
      1342.33507353
      4311.49522148
      2023.91749585
      3433.43702135
      1636.88462294
      1815.87290138
      1975.89511740
      1988.52736504
      600.44020818
      -366.69121384
      267.34269695
      17.22322866
      3091.75373876
      1817.52543795
      -477.10837226
      -577.53524433
      2383.33777685
      741.41338855
      5062.04744780
      2668.46609043
      2258.40317506
      2390.14880641
      1826.41183590
      1303.07100671
      842.98374896
      1781.86310557
      2260.24010427
      -4218.65742490
      2752.65963163
      438.56471849
      2234.00519437
      1642.82813211
      1499.19884377
      932.78622840
      -1869.33089814
      -3096.76230161
      -298.16073751
      -2471.84253268
      -87.46986223
      -969.76170506
      -116.16941919
      -955.62840769
      785.01420716
      -1187.09327399
      431.80256740
      -340.11063565
      -391.43675139
      -217.53193448
      -85.60598662
      137.71789883
      375.20850162
      453.98573411
      518.09121654
      4116.52201136
      6192.65408821
      3942.44684199
      4687.28638387
      -1642.65872195
      949.02587567
      2804.66317441
      432.02299399
      1392.49189841
      23.95616976
      2032.67078148
      3682.38306858
      1481.73835625
      382.90482159
      2931.84668887
      566.62712691
      1504.26933761
      2557.51320277
      4938.02667803
      5738.17332065
      1989.29408431
      4303.29906267
      4953.13856544
      115.26287782
      919.13444883
      176.92426941
      126.92566800
      792.52663682
      1641.60501958
      462.18661405
      2264.02433654
      -567.19882594
      98.16896188
      1265.67246873
      3511.86916815
      1095.38315244
      -493.48508259
      2584.77152386
      1187.15638596
      -3561.23451875
      2415.77383347
      3088.02624155
      1565.93999347
      953.28178992
      2724.94699518
      1728.41325308
      640.75402075
      -3500.10557955
      -1707.22314472
      -1872.33950523
      -1333.18063973
      -918.25834525
      1139.85604096
      3842.01138948
      1418.98986134
      -1408.97151790
      363.08497823
      -501.73740366
      -225.58308619
      -3699.82551797
      -1163.15416463
      -475.94737313
      -2270.84959212
      -891.14004435
      -418.69503939
      40.99019927
      7750.64411260
      -2182.60814015
      3418.62518536
      11121.86964983
      6919.93939297
      5131.80478809
      5445.93501319
      1609.63022932
      577.47063566
      1413.26400441
      1960.69041071
      3559.87576213
      -1848.39349155
      -2477.89120164
      3426.54297427
      -5878.03259789
      1376.63924953
      2108.48114662
      2178.24824100
      3008.47939163
      2651.38539028
      1315.98893950
      354.46759895
      274.27690007
      1488.30345205
      2385.30188841
      2787.84085453
      -460.63852903
      321.18112153
      6097.55791471
      1920.89128322
      -395.57833623
      1044.61777385
      3180.79422087
      1559.74616970
      1287.63575388
      2275.79873916
      243.39683047
      2951.40656244
      3386.66903006
      -227.26313963
      178.14256618
      4872.48771987
      5654.53155388
      1702.08851797
      1245.22895253
      1319.08835479
      3371.82423984
      -1122.61991639
      -2159.28985253
      -2636.27787559
      1570.72502215
      2514.36290303
      1311.68368221
      1824.51503728
      1906.30484748
      1747.53215747
      1200.30047830
      1269.59354752
      37.09639913
      712.59134766
      -2667.51640900
      -4352.88265909
      -25.20566018
      -238.54728346
      302.08303529
      -17305.06999468
      5369.33389922
      2421.29149585
      2547.67914402
      3048.36718265
      2771.33077660
      3817.48551056
      3497.83328196
      1951.58741642
      2324.89934613
      6811.77918126
      5546.87959311
      1679.08557471
      2265.65586738
      4815.11319767
      2769.25362618
      2063.38983628
      4100.99205132
      2604.43459556
      6987.03076368
      1816.57654229
      1218.05195446
      -814.38021673
      -1468.72360027
      2855.26436848
      -3392.32149320
      2937.20920758
      431.98182033
      -70.55948895
      -1103.77443924
      556.68128226
      1235.88694841
      -1188.60105914
      225.64769001
      4412.74422634
      5188.53638171
      2368.63487394
      -270.40273864
      6710.42365364
      1854.14586983
      4782.13389451
      -2105.74973953
      1058.23435338
      -564.32607750
      3506.53213361
      -1869.06652727
      2109.08460915
      1369.46241339
      -375.51207403
      879.09015376
      605.72460453
      723.12510436
      717.89317141
      1270.59565849
      794.32319960
      -698.79442047
      -259.72982262
      501.61746959
      1349.12054562
      52.43987023
      1805.35161584
      1110.68035391
      -273.45970069
      12.85838719
      -106.79873268
      816.82512426
      -28807.02041058
      2937.83623042
      3740.56877706
      3534.47630307
      8064.28999109
      3469.66634559
      9014.56734909
      2980.69676403
      2508.68909548
      -264.75538054
      5445.18847290
      4218.00685975
      4803.94317248
      -1931.38329711
      1065.94367290
      4430.27955760
      5095.88184838
      1983.92595099
      7357.91516809
      1035.43081195
      -3702.02621995
      2965.59215896
      2564.58458129
      6145.03018102
      1401.69551546
      -1363.22124221
      6985.05896819
      2727.25907009
      -2653.60254518
      2323.46339898
      7911.46747930
      691.48896600
      -1361.61768974
      707.96006884
      -1897.21887582
      1447.45626171
      -933.13784594
      2195.02157412
      6545.47047595
      729.61970791
      841.96259476
      4563.25964498
      1445.42521846
      427.77847353
      1228.98084606
      1329.58348515
      1997.54930706
      852.32409485
      2478.19331316
      1268.19051327
      3132.18723742
      2340.50360572
      1399.30803665
      1527.77401898
      469.29581050
      -2483.54800786
      493.75156537
      1511.27201062
      -2546.46601851
      1599.45198638
      2017.82116865
      -1626.10844063
      -1828.70348317
      -825.01065073
      193.80410419
      548.49450813
      7528.08185359
      4339.28646003
      3195.06333595
      1991.22954825
      2290.12875021
      2477.19294006
      5498.16020171
      4763.58632650
      -342.28272457
      2080.12561190
      3256.31891227
      3447.54118357
      -3697.41808531
      7849.07754824
      2132.74565629
      319.75102272
      9566.97755687
      3679.32620775
      3341.06215687
      1499.32737171
      1814.08581024
      3042.30341881
      2635.91662035
      -1396.61143159
      3877.09848065
      4018.61001951
      636.61329791
      1073.32524787
      4814.00370104
      -754.39598854
      1941.15545295
      -727.88555072
      2360.01731759
      7340.06018812
      513.92813596
      1204.54392540
      723.26488489
      729.14771357
      -787.64895184
      4720.78234817
      1112.84234829
      -2693.79180306
      -862.10394336
      4864.27662369
      3415.88612037
      3877.44262240
      1379.56387633
      2523.11588229
      2421.70958941
      791.41008819
      1244.15542917
      1807.76533909
      2393.75002011
      273.06262346
      -412.09819350
      846.72445734
      1123.54216520
      1355.53628256
      1029.54478922
      2584.02480244
      4744.76361069
      3984.88553902
      -453.94152533
      -2095.53911569
      -23.56372317
      499.95526887
      -18063.76538625
      2064.63731462
      2467.32172526
      7305.63317586
      4720.74304047
      3536.86742707
      680.13985786
      643.26927793
      3785.18257648
      3104.11728135
      3631.19924078
      2829.26700829
      7638.78070231
      23.19007830
      5082.84232970
      5054.50920925
      3737.89626811
      182.02375821
      6251.64093552
      3609.28992035
      2522.22174335
      -1726.69239367
      3724.75882875
      1117.70551929
      -56.89925218
      2609.48466651
      -1042.62294411
      5517.23304260
      -576.93479013
      -96.91248490
      4000.96121502
      1999.37387281
      -4044.19316115
      -234.37246632
      3050.43015750
      4363.73017714
      10754.85756433
      967.66691754
      -5306.94122225
      3095.39933393
      4834.79069115
      -1213.58572843
      4670.79558213
      -1450.31302176
      -562.61166172
      -257.03150987
      5308.97365295
      -1577.15371589
      2030.13689066
      535.36283553
      1978.14365000
      1173.77050350
      3640.52664404
      550.98753840
      -512.11353209
      1096.16322728
      866.47638064
      -1768.68621633
      1214.22433393
      906.58858300
      2367.63303828
      2000.44569333
      -2860.39792772
      -52.55014336
      849.11252197
      1240.11099597
      -35532.71009678
      3716.81514595
      5072.21334438
      6573.11823174
      5087.07241141
      8871.21007919
      6980.76396293
      3414.05371678
      2946.70787873
      7615.34131722
      3578.89439819
      2692.35590022
      2613.23558817
      1720.12236878
      3003.00348167
      895.80042053
      7347.68770822
      4546.44519190
      1481.05335565
      11476.75214797
      3782.30543729
      5722.70650724
      7743.57673851
      5336.52782466
      -740.62534261
      16.51634625
      -2416.63296559
      3960.46808366
      6730.95217635
      -9164.71014509
      2689.80848437
      1615.29006381
      715.00220963
      584.24549192
      1251.09716442
      800.56574357
      3275.12749519
      6436.06274146
      3234.00439679
      2704.92199785
      556.94577475
      2689.31698208
      -692.86049383
      700.91211269
      5511.82053643
      2494.71027580
      2847.31419172
      2055.53021473
      955.10291952
      4160.18712883
      -67.89303696
      1040.00930911
      2722.03098022
      -882.61553413
      5085.54509719
      1759.50953177
      -1959.94510096
      -724.81605770
      1296.00475633
      1453.45579503
      3814.35733177
      2877.49667833
      808.76291775
      505.51248509
      31.87530512
      890.31495090
      -32327.05726218
      13012.64602250
      2036.35460886
      5544.41874594
      837.02525008
      4642.63206700
      2846.63144009
      4092.61065001
      6214.54546602
      4009.46785184
      1556.54320768
      -910.48589044
      1486.39021615
      112.04002039
      -1858.69983314
      3757.31651102
      2601.70109132
      9689.06572807
      1554.46728306
      -1887.67073849
      -6681.80419877
      3566.79715679
      3504.36648700
      -1720.12234866
      3405.10757721
      453.87027072
      2716.80310747
      2052.34285791
      4171.07622823
      -944.93210597
      1038.69112921
      -1590.94026571
      2467.77519487
      4164.27708859
      1698.06949314
      2644.98689562
      2754.91473752
      -1198.22518612
      1100.94568246
      4039.52661872
      2363.10630613
      -1421.57041455
      68.17937337
      1799.34158597
      -1675.15252632
      2335.66073655
      -2048.53430659
      919.59768842
      6482.89166234
      478.74133524
      -4681.11851122
      2538.73274436
      -469.40472469
      5103.42290702
      -3073.16462764
      -418.19483007
      4283.22329269
      -2068.38599604
      74.65260537
      3049.94827247
      1349.62916663
      2035.47719180
      -2752.07824210
      1245.77197120
      1606.92345832
      781.46904365
      5881.83567860
      6654.25062774
      8919.15427926
      -646.61900063
      -82.10747369
      8691.44906027
      10487.18517144
      3236.09911279
      1455.91168386
      -637.32098611
      2684.35860196
      2719.98813054
      4943.40461597
      7692.29448934
      -1570.43335573
      980.47718555
      5509.83075979
      3928.81385247
      2434.38531675
      -827.93501442
      1982.84128468
      1231.44514711
      2772.98805017
      757.24070503
      807.32599207
      241.45335985
      1992.74692356
      2633.06895785
      1319.38847884
      1919.71056050
      4960.42346647
      2363.58175889
      4035.85858844
      2476.62570426
      2528.43437195
      226.01188267
      918.53360579
      1389.62275792
      -20.48382528
      788.56111743
      1758.98940943
      1229.97117607
      2058.25109392
      -125.79677480
      2447.34632383
      -1436.77528553
      2633.00455279
      438.53285846
      91.98471320
      1931.31704027
      3391.65288318
      -2343.52882696
      -682.96575842
      1962.82551527
      587.86070986
      -409.55705825
      121.09113928
      1324.37051289
      1635.32833275
      3001.46720113
      2480.72483733
      -1437.44243961
      -1125.48379587
      250.76380662
      -199.64880464
      -69.73657161
      7934.43830471
      9655.33432243
      3629.03554624
      2754.71280850
      10336.42346378
      4774.67915935
      246.03112697
      4653.54084291
      1702.57672552
      2531.83984692
      1773.69895757
      2535.14781445
      714.27680994
      3040.45140766
      528.11105265
      3179.60319431
      4319.23772860
      1717.75327922
      576.63429176
      -744.04536801
      -751.55364197
      12089.55759642
      -2676.36891602
      2497.10910377
      641.43747391
      2010.94763750
      310.28942753
      3270.48369560
      3708.50630759
      1360.94799603
      1789.19404912
      271.86768508
      512.91855304
      2946.48207092
      3708.82524549
      5611.82093803
      3643.51716463
      632.50002871
      -1416.71037279
      1380.39061785
      -2485.54687199
      5111.63446536
      4485.85341643
      771.07875484
      -360.16976525
      1137.59771073
      -805.14569335
      1102.43192151
      1344.67776302
      -76.03210512
      -744.89010462
      1994.12481683
      -66.24628318
      1388.28601161
      496.56892104
      1808.49973278
      18.75217509
      -738.47224201
      655.15638852
      1321.17453871
      25.25547507
      1129.17161159
      -962.31215060
      404.95878976
      -43.06869647
      236.82709791
      4492.46523224
      5136.40814813
      537.13768581
      7162.61720314
      5848.33761139
      5542.77546160
      1955.02149784
      1895.21788705
      -70.12412882
      3905.19465245
      2796.94509539
      1147.59140930
      -2142.05507946
      587.10024334
      1803.24782675
      1293.16494291
      1543.36413118
      755.96935026
      394.32113578
      1051.53313344
      1468.18196437
      66.70066240
      1957.53016649
      4818.73079416
      755.61374365
      3117.51634278
      4939.65329182
      3971.26766047
      -1398.72964709
      6339.46920725
      323.53423315
      2269.90671756
      -1481.24710772
      2918.35516855
      3389.59845197
      -322.44646114
      2757.03381974
      455.63552193
      2152.04551819
      1578.78840034
      2470.27695923
      1084.63048824
      1030.12157939
      2199.01211090
      -461.03533744
      2978.81470216
      -194.32169570
      2123.74097048
      1746.98606077
      1750.33942526
      4538.34591563
      1852.01315042
      -1900.44606459
      748.32753539
      -201.24721147
      -299.45043621
      870.69939271
      536.06257535
      1350.17400087
      186.03334060
      -611.24006698
      50.95286775
      1005.15125688
      -933.10898178
      -344.31348939
      -393.30672680
      3241.21104191
      16053.37259580
      9538.75003560
      3190.25081526
      1203.16356604
      3390.52125538
      1912.84103519
      3281.03143222
      3001.96476882
      2148.11437495
      9121.75046789
      10.55765799
      -12043.57956441
      2838.97908468
      -3756.70197413
      2951.29888943
      3022.96702284
      14019.09147977
      1126.16542689
      -454.14428892
      -335.38105185
      5417.78923861
      3590.86036825
      2483.54593095
      1724.43840647
      1645.67386591
      4559.93634031
      -1602.08787510
      2744.75845894
      8169.70566645
      1553.34911916
      265.51653316
      1852.20341711
      -1247.99288435
      352.76963430
      3449.98139806
      -2508.59976403
      3116.95228071
      861.02350534
      5733.85336923
      100.28756852
      156.98784761
      -443.40646565
      -1311.97805092
      1331.00485865
      4321.44149557
      1249.84987114
      1551.48174736
      -2806.30816447
      -1309.62418528
      -531.84862827
      4264.80654848
      560.63492954
      -664.89038246
      736.15241436
      694.88358007
      112.54500654
      262.02331017
      260.66498252
      27.00036719
      1021.12800949
      -326.24318640
      -234.48291468
      262.74061793
      -256.36067794
      250.37972468
      5671.95096162
      1576.12594652
      7184.11011935
      1997.36250148
      4755.88454700
      2023.29665990
      -1037.19972488
      3445.82869810
      5345.15053002
      -631.11536515
      1402.22567611
      2302.00825422
      4380.89409238
      6747.42858336
      1997.88034268
      819.69972724
      7506.22929216
      2306.06943492
      -4593.89430725
      2129.85363118
      3502.61582113
      3412.71087771
      4180.56543627
      9897.10101857
      -498.79639263
      8398.21443751
      2292.59991923
      2169.38542737
      2699.46238455
      509.13999723
      1259.11292946
      5716.30295238
      5599.40960991
      6915.47786552
      -2203.46227426
      8126.36898524
      -228.57522938
      1866.30392637
      3454.74495916
      2689.50037112
      4891.92872107
      -218.94410514
      4628.23676098
      3551.56429850
      1097.47038376
      -2124.80185412
      1429.54060493
      771.86790404
      1334.95151254
      2791.47603809
      1409.80457086
      1424.63383220
      595.66344179
      -1414.08054844
      2842.68428097
      1524.69016089
      1840.66082175
      -910.25507805
      2372.16165962
      2383.94767099
      343.45909837
      -790.78036861
      -1088.41281113
      -867.71681015
      -60.98741422
      1501.37394607
      -8349.38669140
      3354.13887626
      26673.93974738
      2974.54279782
      4422.09482555
      3594.61022732
      3029.89010572
      1528.59148967
      6829.91777835
      -1284.29570146
      4222.93606035
      2561.81200086
      4692.97018626
      784.47824562
      405.17435108
      8261.33376880
      5582.11487472
      4052.50175711
      3171.69970469
      10915.35367678
      11705.82017192
      5809.36997304
      2155.32469113
      5086.84067048
      1640.76624847
      1824.16258289
      4612.87568150
      1946.90514015
      7735.24799477
      1376.37898837
      3518.61785112
      8596.98087879
      2870.83820281
      2323.47313462
      1120.58109528
      4956.09922778
      1725.97158595
      1538.09596533
      2325.96188210
      3066.99537351
      961.88147795
      -10568.45967847
      4294.62907937
      2537.53666001
      2617.44151829
      -2147.04492843
      2650.35893689
      -851.63038295
      -2.82518396
      612.22554946
      -555.72726040
      812.54218819
      1626.34452185
      -92.77817575
      185.82706586
      308.53193364
      -894.34147230
      -638.68260649
      453.48397544
      -211.82056214
      -298.95606478
      301.70691335
      1477.54479267
      1652.47107543
      2507.22348241
      587.23152606
      5479.70654443
      6340.22184918
      13603.86036146
      6178.94140068
      3045.15596272
      4714.74457841
      6843.05707061
      1720.88653898
      5553.88094036
      3191.32983751
      6102.10962581
      3456.29408165
      5084.74736768
      932.10934864
      9328.02312635
      5888.22259820
      5719.07196428
      1724.18251447
      2031.73672865
      1331.40287406
      2157.35383475
      4132.87621919
      3448.76811689
      -1144.84754024
      -1.06692600
      3419.86744106
      2877.86629044
      2337.08591420
      2905.97980660
      5095.56313803
      2843.21012779
      1089.06107962
      2775.93896550
      4909.33711261
      336.64590432
      2745.48247490
      3404.53650330
      1679.27234753
      38.08063142
      -2166.02595201
      9168.28169270
      950.21267080
      3318.54529463
      164.14334179
      1884.44815855
      -480.68143063
      1134.61938368
      48.00280644
      3784.55133485
      688.23151552
      207.15821579
      3476.82059130
      1829.15709633
      821.18518830
      864.52939334
      -405.08963791
      717.63191925
      627.24607304
      -545.55159500
      2477.65316403
      927.96048119
      -337.53475907
      -958.90838795
      -500.84015546
      655.18880355
      557.89305166
      7427.38071203
      12524.53250811
      11399.81708660
      8652.75986454
      11998.36375195
      7432.97410272
      1805.10761950
      6379.97693595
      -3487.78460439
      7048.73906008
      2072.35292083
      2300.52048403
      6929.54826658
      -1503.07068216
      4157.57998475
      2322.82975664
      2234.25017712
      4924.32748489
      10209.10011311
      4142.92156645
      488.30386326
      -758.09873911
      3624.89201728
      3812.59702051
      -103.39459246
      7398.76634666
      5448.77017342
      3798.09573488
      894.15561857
      5726.33947602
      1779.85027299
      5556.25302302
      -118.47297819
      2435.29646169
      665.52501649
      8727.89053755
      1509.41577842
      2498.13709327
      1038.82725745
      1192.37988449
      6409.07598271
      3031.11864965
      339.03598830
      1057.77074851
      861.46445900
      5240.36413515
      -3931.97298988
      3816.30249814
      134.17016745
      -992.08225236
      1018.44203178
      347.88127761
      -85.09782520
      1159.23007358
      1322.28076520
      -47.74782820
      2371.54571366
      85.29622066
      2322.25074924
      -860.14949636
      517.54032086
      1382.58232799
      100.51518811
      577.65569449
      245.58384839
      213.03429798
      17100.85834795
      4149.08070208
      5006.63052106
      11697.59542167
      11324.33037952
      9063.69722109
      4707.24768207
      6126.88720983
      12382.74938245
      2116.42140432
      2721.73164246
      267.32841519
      7089.13256030
      2637.08444771
      8408.45860652
      848.73979418
      2211.56511062
      5806.53084923
      4582.24050413
      3920.55455050
      3984.11996888
      1431.26011781
      6217.64969839
      178.88733718
      7105.53495219
      4193.98750378
      -547.30479085
      11242.64002014
      2192.86201129
      1448.84801696
      5529.88415096
      2070.46402662
      1799.40209930
      686.37965056
      2209.75147780
      7592.67103463
      448.54266875
      -3328.42858822
      -1286.89506508
      6513.66304886
      1568.36397487
      261.35242352
      924.62060230
      2460.62124363
      -108.76740418
      -208.86676541
      -2300.09768164
      -630.41285878
      1409.20634894
      -418.50706117
      -967.91481034
      2632.97965826
      -1898.88381175
      96.78247336
      2541.52714705
      -827.95376638
      1838.82437604
      566.63330835
      831.71339461
      -99.09739542
      -1323.03297806
      851.61652185
      1669.12127125
      -400.63693624
      -360.63080420
      785.84638730
      -4414.29512132
      3429.05489633
      2935.89996319
      4130.10554897
      4039.18312715
      6022.86397040
      2464.34676287
      4743.48416757
      6701.49334603
      853.72256777
      11133.79308962
      3382.60278853
      6219.21055825
      6570.56539181
      10435.16491237
      -1190.28968170
      7588.13340580
      2862.33093030
      -277.37706456
      4137.94964187
      -1414.64547675
      251.67286051
      -3970.58902548
      3926.12862325
      4937.13506308
      3156.18190251
      611.48330685
      214.77571160
      3555.25535665
      5158.14457234
      -52.84988534
      2061.24534542
      695.84198475
      1471.45209482
      5285.66425227
      1685.21843807
      -1186.62575045
      5798.48089709
      5143.81029311
      91.41192790
      1823.02489388
      3063.56897766
      3072.52319800
      7703.18967259
      4884.95661405
      -943.57780877
      -663.04486365
      2131.72040128
      4723.12749839
      2901.50037936
      4280.00074147
      967.75241412
      721.06720100
      908.43192720
      2131.49742162
      335.73439459
      -5564.88256459
      -818.35405987
      -159.24511810
      1695.98246943
      -90.67062084
      1925.72986370
      681.96028034
      -635.08757558
      1522.52169761
      529.49365487
      -19965.59071168
      494.82104911
      1384.05460132
      4545.49480989
      3982.76059617
      -1357.94523927
      4290.35601958
      3684.40267684
      515.69901944
      1406.84002351
      3084.71170073
      4296.36870470
      7559.55253847
      -8147.98495089
      7586.41334384
      1575.09926391
      2375.89068144
      8066.85265459
      6291.06147227
      2122.66031935
      -5205.79733876
      8192.66573952
      -4125.32662907
      4281.93578420
      -3653.53256152
      12531.11897120
      -1480.14249754
      -789.82534542
      -1135.81872768
      -2513.38578881
      1726.34876360
      -1880.43677900
      1883.02722984
      -2196.61842959
      1526.81421925
      124.99889604
      3446.39697436
      -921.04599713
      287.25261473
      642.81284056
      -660.85681085
      -149.19298351
      2655.04864747
      -1567.06235032
      1305.17547382
      -2334.12581330
      2671.43825296
      -1516.81249690
      1961.10935722
      -30.43397408
      2107.33368397
      5399.63178007
      -1045.43138002
      -2994.55121880
      12.87333280
      6462.88094391
      2432.05623455
      3765.02471271
      1093.28186028
      -5313.27195400
      354.16589987
      -111.23852625
      1877.83905788
      1823.36217840
      -2462.11749102
      823.76611779
      -20679.69231914
      586.87287892
      5985.90148532
      3844.12784734
      6639.85887805
      6525.74763914
      2934.14954726
      7116.77913447
      1375.90375529
      879.86668177
      2755.39889283
      3108.36522812
      1650.74186740
      9565.69667471
      -21533.00046132
      12405.12600985
      723.36881616
      -3936.94487724
      2898.92476149
      2930.11024337
      -411.83764948
      1792.49353803
      -1995.68663366
      -1872.32370361
      -3391.57916199
      1528.65407183
      -18.70327236
      853.85574905
      2889.66331615
      438.54733532
      405.59000843
      321.94284240
      1221.19141177
      3976.42349932
      -45.21490778
      3101.07635068
      -26.83360604
      3504.04890919
      -1048.15333234
      4110.19297977