<?xml version="1.0"?>
<VTKFile type= "UnstructuredGrid"  version= "0.1"  byte_order= "BigEndian">
<UnstructuredGrid>
<Piece NumberOfPoints="5123" NumberOfCells="5123">
<PointData Scalars="Pressure" Vectors="Velocity">
<DataArray type="Float32" Name="Pressures" format="ascii">
      -1760.17211173
      -24410.23227943
      -34282.77154971
      -35561.77368429
      -25076.91863939
      -5943.61976119
      -20482.92742986
      15756.87166404
      14103.91573127
      -37979.07088609
      27552.96571655
      -24929.46055353
      -16743.54897659
      12847.74195274
      -24289.64383439
      12297.70262215
      -28172.76905675
      15885.98518404
      9710.95107797
      -19896.22698744
      9096.80112705
      10684.61290815
      -14532.70426169
      13144.39603925
      3116.78286425
      15414.38145622
      9325.30823170
      4529.52779808
      11918.85916865
      5719.70336320
      3457.73581812
      -13861.86519014
      7563.82792051
      14276.09066596
      1587.06464314
      7735.03471818
      2541.20042496
      3620.10607182
      2111.41338350
      2934.90491411
      1436.05800797
      -1374.00965629
      -607.34197718
      -6089.35558540
      2654.90794786
      6940.70000574
      2257.07158553
      -1550.02279079
      3640.65694158
      2424.94669884
      -5079.15368776
      408.02407000
      3607.16925159
      2535.10356133
      -5112.40965121
      2521.15395041
      1107.65791977
      1001.68447099
      364.80247752
      831.28361314
      510.69125539
      -267.53178188
      963.10894572
      147.39054554
      -511.53026331
      -9.11275410
      6579.61375210
      22900.56463358
      14231.67433234
      8351.55873706
      5564.74508789
      7364.24108546
      5091.26402379
      10447.10536172
      4062.87269126
      10355.39422988
      3648.30020107
      6836.15791182
      6760.33212976
      3235.86850378
      4362.91200250
      2696.27938747
      6092.07513891
      6779.89133404
      8025.73444233
      5853.42643645
      2730.20266490
      12881.27547808
      7539.10978246
      1029.86719674
      3969.40469814
      4057.21915140
      9377.66017307
      9301.43604615
      8857.73969074
      -5011.62582327
      4901.53059953
      3637.11743136
      4599.54875979
      2422.06571946
      6795.56291030
      3983.40737490
      5594.24940828
      2709.07298033
      6761.30145569
      673.77310120
      481.46613083
      201.02128821
      -3582.86780990
      10055.84822139
      -12288.42993038
      3775.69341122
      4382.60178808
      3336.95804582
      -1978.07375628
      -1074.32437008
      879.62255271
      1103.20883360
      2969.81436389
      -2840.33481060
      -3891.32727566
      8201.10613895
      -4432.23742439
      4811.84754463
      -3761.22524849
      2463.83441191
      75.37244473
      -5047.21038252
      255.87579373
      -31.10634990
      -5.81980451
      -147.83480877
      8924.05653021
      6400.33631274
      18559.55195177
      11503.75219701
      8880.97199368
      9198.21249771
      13231.61034703
      11846.88268190
      6724.62109510
      7358.71872182
      4614.97256646
      5126.53081309
      7277.11731562
      10765.82648037
      12350.65898965
      8847.57911804
      7939.00722813
      4110.35258348
      4721.92584749
      11816.78483915
      9732.68017797
      7898.32585181
      4039.88369636
      5400.75485180
      5966.00171862
      9595.78499983
      5730.07436994
      2698.63249580
      3625.74054020
      7705.49509393
      9400.08334517
      11142.51975697
      9659.04829972
      -683.90117315
      1795.21371476
      5290.58851654
      4281.02609581
      2036.18025014
      -263.30210445
      4743.13959164
      3800.96671545
      1864.59853191
      4178.29452179
      4862.02171143
      523.95883197
      1240.64466509
      3282.79920132
      3834.88916800
      5580.55056539
      5327.69922834
      -1640.83338018
      996.62317198
      2328.73692342
      2047.10451106
      1353.92967478
      -1768.86308985
      3900.26750625
      2189.73429439
      5555.32320650
      -4593.68092502
      -871.09438830
      1415.17979624
      -1058.74432915
      1026.33946914
      1258.19478485
      795.21413553
      7218.93110163
      9072.26353070
      5714.12922918
      10330.88691038
      14892.09473861
      12629.37149247
      10282.93819594
      6853.45861673
      13012.72061703
      314.46777119
      11659.18693777
      20598.24862069
      8805.39871650
      7322.54693299
      10684.71911880
      11093.81634680
      12388.95006795
      10404.46398324
      8496.19270186
      3382.76891162
      7862.09197809
      11765.82844897
      15566.95787870
      17673.02585212
      8854.28525099
      12355.19562955
      4028.14400090
      2860.03176522
      5562.40680350
      8961.01121018
      4309.44214405
      6272.11641264
      5691.07869756
      8362.29361089
      9989.84412840
      7085.27029345
      10819.87939206
      1842.15283680
      8079.27097255
      -38.03320980
      1164.84634826
      2225.07519917
      1696.79453568
      6150.13158478
      2561.08256297
      2906.07239887
      7439.58908227
      6243.68495783
      -70.82912774
      3070.74292839
      2350.75427199
      929.29380362
      3619.19952639
      4982.04044532
      5532.53415947
      -2602.58615413
      -1285.64629437
      4085.95354681
      791.96850281
      4421.75764220
      100.18656963
      -1461.11894016
      1402.41472889
      -2341.66109381
      54.53633184
      1921.48467927
      9104.64317607
      5662.47277797
      33309.57947452
      25860.68909703
      11536.58242489
      11866.80541163
      20602.95425450
      20639.60479063
      3921.50678957
      14473.53238734
      5494.70882181
      9275.63068904
      7787.45905061
      6178.19556905
      8253.15152763
      17174.72002687
      7580.11347644
      3924.24973240
      5879.72547688
      12957.97641273
      10669.69585718
      -1723.96208526
      16210.55659234
      3447.97454773
      7940.79326435
      29060.28092383
      6566.59522509
      -4893.84024683
      14051.06552476
      8280.57510796
      7153.46007871
      3889.85772148
      6215.84742797
      7968.28958469
      9914.42713048
      7202.66943672
      13894.22993136
      10304.09953347
      2819.96638354
      3515.62527329
      1476.83184727
      9322.34164710
      3592.67858511
      5056.45230699
      6398.36179216
      6610.53627117
      8488.47288897
      2031.36123171
      3759.77644996
      5019.91432726
      3823.36028941
      4342.93766361
      2841.12773741
      3457.22423806
      1882.49590101
      2777.45835155
      7175.87983364
      973.86608397
      -2306.25844840
      1904.26966913
      -184.48403941
      1150.41713086
      535.23125605
      3882.19582684
      75.07633431
      598.37673858
      -17305.06999468
      9996.87782636
      6913.57099055
      5747.44464842
      11816.52356272
      13531.26563282
      9552.28413642
      10564.08572572
      19972.29751240
      13719.54596113
      13036.07642629
      10532.23910307
      -7310.93474021
      8558.40782212
      12724.76007350
      8950.60957711
      13397.57388495
      15819.88641129
      20928.47679807
      11728.43466251
      7784.14946603
      3627.14322507
      7740.22768474
      11709.21030600
      4071.43264130
      13938.73537828
      5698.01512311
      5390.53283654
      6368.19416301
      -59.90686151
      10021.99311484
      11410.47619890
      8230.04150937
      9083.45382192
      111.12115137
      1178.43025392
      8324.42086074
      3444.79834077
      10309.86380910
      7912.48508815
      71.28154087
      4364.95302506
      5598.32347619
      6590.28012898
      10389.87586153
      -3815.78085986
      4251.44407378
      7487.67120995
      6679.18073136
      6036.27948753
      1384.63521286
      511.41955003
      5727.11937561
      2698.95689301
      4521.60382634
      596.12460688
      2604.35334634
      7223.97514624
      2962.05041308
      -1598.89539532
      2954.13988670
      3520.07499965
      -1626.65523036
      1372.98492221
      749.48746767
      -619.92772137
      -28807.02041058
      8030.88470640
      8809.79208166
      5156.62918242
      7788.74058518
      5032.30104495
      3324.04734547
      4320.41982434
      9975.26283313
      14363.61737491
      16204.36899745
      11605.16268662
      12062.38758367
      5597.18788458
      7211.49373570
      12581.82677059
      8144.78364049
      2554.82015539
      8112.59175016
      15449.44214525
      10166.31565193
      12424.66485488
      3214.40695913
      6858.79274050
      8683.92173812
      9586.35470423
      11346.71534357
      9830.13531096
      10746.98606063
      7541.14047768
      8347.60518945
      3453.73319021
      7797.76876788
      9160.45685345
      6614.18363785
      10107.82599125
      6501.27095506
      195.75429418
      6378.82148474
      10655.53251317
      8468.42288320
      6219.36344303
      3063.10885117
      5617.46154772
      8283.85894240
      5517.48979142
      5990.52799975
      2195.89310185
      5782.10077938
      9908.64735558
      5615.30565212
      3498.18344632
      1151.78242311
      8203.80500865
      3368.12864355
      3988.39956022
      4927.37741172
      3025.21546459
      6033.00842701
      5549.87974405
      -810.66185728
      3165.03309243
      2031.25227319
      -86.89923794
      -325.67465578
      -658.50676357
      14285.78528468
      19606.71934070
      8123.55537736
      3361.83657061
      4737.63603775
      5045.31141496
      14177.16737128
      12857.77460088
      18348.94344958
      13469.37392244
      10348.37073352
      17616.35085428
      4240.97181222
      9002.15331187
      3284.26969309
      11360.62500479
      3990.35700573
      9214.57626696
      4160.39932749
      1478.41239873
      8619.90681474
      6084.46737726
      8123.77782281
      8845.40748822
      8619.05922476
      2958.08352828
      3985.71086146
      7327.29253345
      6782.80508786
      9728.89028264
      1764.08419721
      9127.57105648
      1104.89990166
      6130.82502421
      9740.41241231
      7778.41875114
      7077.59658469
      9732.68019463
      829.10893750
      2227.51155167
      10245.37932370
      6984.68570605
      8334.91762392
      6333.52883029
      4480.37800721
      3951.90748537
      4845.92269186
      7284.56939713
      4486.31559746
      6248.57634353
      3987.37539418
      3169.77468450
      7662.27757906
      2483.45634877
      1804.46945371
      3569.09091682
      5060.81732308
      4554.41345371
      3971.12279887
      4449.23357176
      3586.24105542
      1624.32743526
      1479.60244656
      1651.38188119
      -2203.56923843
      706.19976956
      -18063.76538625
      8652.55040613
      9956.37135029
      14529.88704621
      19466.14084078
      1560.13994613
      9422.81139115
      3998.38448605
      19939.42399572
      9634.98836251
      3069.86746140
      9895.77350261
      5644.15260790
      10465.82346796
      14364.25897970
      3452.66142259
      8186.62868310
      13175.92766433
      8740.27622472
      11695.36897102
      12719.61288445
      8979.29906408
      13065.08647126
      6256.56370532
      13392.02470439
      4483.04232574
      6656.63191229
      6710.93301712
      7331.65261181
      7576.15602999
      8442.81241078
      5860.59734631
      7692.23175055
      7791.21181493
      -1225.07254009
      8780.12443192
      7452.77682212
      8719.16299312
      10712.71706749
      3156.09454672
      6769.57549745
      7937.80233938
      7119.87889054
      7603.83700817
      8062.97194998
      1178.38154163
      3567.56131727
      5098.24261983
      5678.66468017
      3701.35883517
      5912.97842006
      2991.65385386
      4434.79720907
      6613.43012955
      3268.17111118
      3746.95364024
      2996.95939351
      3440.60361154
      1805.77535164
      3077.55324904
      1446.77874707
      758.17975750
      659.59279628
      5.12215662
      588.62033458
      821.40673652
      -35532.71009678
      26170.94781021
      14792.11704929
      12641.41383946
      5503.03468676
      5745.19549935
      13195.02158389
      23476.29531670
      22757.85383765
      10232.41498790
      7072.11004145
      15341.27530665
      4193.28355262
      11237.27333929
      7539.86630029
      18965.85602567
      9119.67300548
      9579.87713227
      6177.91033670
      10231.84524120
      6250.80398026
      5654.21345938
      13964.22110929
      3956.85217953
      12182.85531160
      3686.93280823
      3977.79226107
      7371.90725770
      7050.33954868
      9896.81838622
      9443.79163333
      7898.87092036
      6422.44103955
      3915.22835441
      3432.88574345
      11815.06916308
      6414.43898743
      8937.62381513
      6520.72803050
      9671.66101127
      6604.80110926
      4356.70058067
      4679.12607810
      8158.23673547
      10243.49914250
      8659.18972145
      4762.95313646
      6333.73299430
      6680.00217674
      8431.23320583
      1728.79124756
      3545.84762840
      3547.89380963
      8363.40029173
      1985.43483637
      2803.05173679
      3226.64453002
      7134.69664646
      2266.37202728
      1379.20244264
      2372.87533415
      4546.01893383
      1142.64555260
      1818.34792076
      -190.90717243
      192.95172817
      -32327.05726218
      18995.85742090
      4734.13201636
      13155.18686118
      6796.06404637
      12544.54207348
      11321.99315229
      9785.16594327
      8591.78745432
      12563.82203859
      6072.37166550
      8952.63227939
      14068.95455889
      2396.95790668
      12694.80792715
      13977.48842583
      9632.60172715
      1670.12197861
      12582.76724485
      8300.10460324
      7384.73720423
      10477.48059171
      5558.55853509
      14920.95591241
      5493.36160658
      8270.89349426
      6879.28073239
      6270.75049490
      1587.71617435
      7733.86418959
      7337.54025636
      -725.36808691
      9839.18249000
      7099.33270066
      1917.69975278
      4670.81087071
      8801.72445061
      7756.35192464
      5464.15608617
      4654.78827634
      11835.30299168
      5254.70022977
      3783.42219632
      4864.52639803
      10842.70484393
      5865.34652240
      3337.63962577
      5840.08554286
      5699.84360468
      7760.83122276
      7349.80171778
      1245.82184544
      4341.43837145
      9531.98577153
      5249.65662584
      3019.03753271
      3305.16181229
      2357.31046599
      3525.32597353
      1050.30746905
      393.82422790
      1799.38279972
      -25.60473721
      1044.57143727
      -3.81498080
      752.55046145
      14187.41291860
      15834.90127153
      18584.67865057
      7583.25651221
      14909.62638120
      10877.02120538
      22313.12005738
      8886.73527629
      16281.87772647
      8592.25953776
      5468.13531375
      6021.57924279
      7707.32238386
      8067.89819544
      12279.58770253
      11161.30763532
      6338.73519362
      10694.12043588
      8131.55929778
      6926.73424485
      -313.08684102
      10982.71153587
      8921.21250318
      4221.55113956
      8869.88462795
      7624.27408568
      5695.10044977
      2043.31829412
      9864.55680750
      5389.50697641
      8568.94751548
      8374.55950575
      7658.05797690
      6200.96410947
      4818.76883344
      1783.09544055
      9419.13742966
      10840.31078070
      1114.48141604
      6034.83703572
      3353.22555157
      6229.89954114
      3298.97369183
      4070.85742557
      7997.31569171
      4791.37217885
      4867.64796792
      3981.81707607
      5892.94298005
      6851.42383530
      5367.54965621
      4040.76016645
      4787.97489910
      3262.04164372
      6480.47178546
      174.05070356
      2419.04351930
      3813.52232685
      418.96937201
      -302.78150258
      2139.21462182
      2721.94089183
      246.87774414
      -1174.79267822
      -48.91272308
      -139.32051217
      20242.61839839
      16963.68198843
      10286.92020178
      9835.91825402
      6341.61084374
      5335.08810219
      5701.48490878
      11792.35422462
      22862.27632659
      1917.33950115
      8887.71754956
      -1622.28372775
      3962.45240942
      9418.21300620
      8142.15043890
      14983.16513879
      6961.59230188
      9373.99761820
      4343.76027625
      110.72253739
      4713.98496192
      7432.06968492
      7947.47282018
      3912.90085533
      13963.38383686
      5723.61293847
      14199.76966554
      7065.48929958
      6431.30010504
      7175.06312171
      9216.70878578
      8800.01983547
      9919.93176414
      8213.31423648
      7703.95696269
      1687.84862751
      8088.65664366
      6960.40426041
      5654.24206535
      5961.30443027
      9122.62335863
      7778.53954085
      4959.13064877
      6927.28823354
      7750.35917317
      3196.51596366
      4052.82412730
      8264.43015648
      6405.97328673
      5962.98316670
      4822.88803284
      2953.55849998
      2002.67463338
      7562.48508102
      6497.08672426
      2767.57102005
      924.75742511
      2763.41777225
      3216.61383450
      2379.03332116
      1406.57412304
      1450.83622268
      33.51989626
      614.28539071
      -378.80034129
      2934.16545058
      -4670.73866042
      7749.29131075
      1793.91930602
      10189.77780948
      7434.08173424
      12405.38828266
      18295.30461393
      18152.34233504
      -4127.16067892
      12470.81956143
      11329.74853550
      2398.91774121
      5006.05833642
      17063.73833456
      18974.32886694
      11032.08531967
      12566.28306272
      4317.10984394
      7037.27261940
      -67.34487451
      10422.34788633
      7834.07004756
      3529.52430942
      10813.60691146
      10418.76241018
      5419.34098876
      9229.03134215
      5466.75424664
      7895.68661704
      4978.17876406
      4030.01062355
      10637.87663975
      7076.44132865
      7339.25684448
      17416.07305309
      8185.60141595
      346.54821804
      3997.90465953
      4622.01393959
      6682.51961051
      9872.20155069
      2786.77823568
      2383.89361971
      8570.44208217
      5250.41375625
      8074.09834646
      7996.82510267
      6115.18801044
      5945.53426339
      7290.32969469
      6469.39413023
      6891.08887572
      4504.14869585
      3082.20587921
      2577.77406236
      4130.00085744
      851.17537304
      1868.74327910
      3938.64510282
      194.90385707
      1078.50239504
      -335.37206869
      1352.31058578
      871.44667993
      -1750.91016739
      -1426.79805810
      21440.85235693
      15382.40026548
      6924.35680344
      2431.57567220
      20881.11634457
      6372.20040528
      22515.64521359
      10119.20999185
      8772.05953582
      17635.91740848
      12034.98393994
      11700.60252613
      8704.52641927
      6509.86466746
      12164.29364051
      9568.01444065
      8716.59043330
      -284.48749965
      6423.87841803
      1580.57109784
      10541.08517109
      10770.53274348
      2229.95748468
      7260.26048751
      14434.13045709
      6004.63037645
      6044.79757710
      7806.04595757
      9916.06875144
      5413.68027581
      7465.84311937
      14925.81400520
      9094.43709092
      10799.19348280
      3040.37084452
      7232.21779311
      5567.49234932
      5761.45218956
      10180.08019332
      10235.30841373
      5283.54566115
      8073.10843765
      9473.92966743
      8192.83296541
      8050.43205645
      7028.02037009
      10592.24993962
      5355.78352781
      1522.05156179
      3134.29627889
      7098.96492547
      9438.68999147
      261.42546711
      2945.44763580
      4397.72015921
      5468.77784242
      3547.51722106
      1506.54337796
      3038.97685484
      3611.47752865
      413.76736671
      -516.54331763
      70.63841161
      -735.77036316
      -280.39987382
      -243.80075327
      7276.34238701
      29650.57748096
      -3041.10165890
      -1841.84018278
      19673.88271287
      7286.74292997
      18232.44316884
      18522.19567204
      -8989.28178283
      8110.52761660
      -2278.07234224
      12865.43054849
      7439.42100184
      -824.78616934
      10214.47918597
      2002.20944519
      896.19456378
      11507.92610138
      12786.60266516
      14262.88560743
      7705.40654775
      6318.98778416
      7203.96326029
      644.68361539
      2591.85240782
      4448.16270131
      10950.88204348
      13684.65083898
      7871.77246626
      8722.33274469
      6605.06844756
      4325.68520292
      4929.18502519
      2711.87624003
      7863.28082985
      8536.37706151
      11288.35025583
      8038.07319861
      4237.19636877
      3444.60950531
      5362.71922228
      11157.26004485
      11135.00542417
      4881.44093079
      5322.87769342
      6147.04679722
      7051.60294833
      6758.80504697
      7630.90519327
      8158.26136386
      4312.76765760
      3004.32252095
      5386.96205385
      4604.90242614
      1408.12576967
      4051.89552096
      4558.11091755
      -262.71369457
      875.18063380
      3358.40870574
      571.13366222
      360.01314871
      1649.39898199
      1376.87510516
      -114.10848758
      1001.53496410
      14075.48956599
      12493.74721245
      7583.94467974
      9660.98899192
      11580.13699632
      2294.81338006
      14537.50137207
      6321.64326425
      5087.75948183
      5591.61809750
      1805.59266884
      5129.57776866
      8979.89597353
      6183.03725624
      3534.68332681
      12158.36625877
      3413.18649229
      5253.99904585
      1333.45639598
      14026.98614914
      6807.01595952
      3729.85936133
      4000.00821124
      5398.17432783
      7548.75190920
      11162.63220006
      15842.95145359
      8059.20169487
      10243.80542829
      13615.96419368
      -514.13591982
      7380.24584340
      10258.11941085
      7631.62746487
      10865.26804743
      8312.24792997
      5535.78750538
      6131.24479825
      6006.14953504
      1070.20571169
      3046.25474613
      6286.54570862
      7889.84927211
      9986.48572196
      2407.99786019
      4625.98456666
      7310.80988930
      3976.16454143
      3921.15899975
      4000.14629531
      2532.15918985
      4132.41614586
      4913.39044284
      -274.97774229
      1200.90511019
      3879.60315896
      6215.90077160
      2904.74920863
      -726.08020746
      2194.81942537
      3812.48143594
      1330.43987836
      5515.19725718
      -266.05915012
      107.13980971
      541.74608350
      6472.78467040
      16200.82374523
      16327.06565886
      12359.81346403
      -1549.67231566
      31880.35764794
      1025.60783219
      12089.04350967
      13314.45355675
      11792.14061742
      15928.22144605
      -9067.70084075
      -168.53738684
      3691.69956793
      10036.91996799
      7104.67969274
      16719.55431648
      8045.79780980
      4617.27923583
      5371.07421481
      3245.30950142
      7489.08205051
      7598.81798880
      4746.21490507
      6519.17549011
      6129.71998191
      10982.97626955
      3524.49649839
      5657.51923447
      10116.42398518
      11487.26882095
      13078.35315739
      -4988.40816776
      7117.22958367
      8350.60516644
      4119.74806744
      2195.12646168
      3036.81897308
      7308.51012232
      8933.31184244
      3609.15628995
      6739.04560838
      8386.17430672
      6335.32991457
      4373.67076829
      1569.43762796
      5011.76972593
      5924.74307917
      6205.21852220
      3222.59982550
      2533.78282821
      68.77469223
      2000.47369619
      5871.53975995
      2173.25641064
      2098.40350489
      2813.75769569
      5180.78187034
      2153.95515868
      2513.09680633
      1868.02859559
      2136.53548267
      1114.54747461
      3214.45438414
      -409.91138069
      -1205.42766865
      -2538.04505309
      13304.28855021
      15160.24415296
      -9192.49790825
      12829.95112114
      13846.51740514
      8084.83206232
      -416.79591172
      -217.48461431
      4123.37877075
      8396.83488528
      3218.29762934
      4467.48410069
      1184.37193845
      8737.50538851
      -6196.82862083
      3737.59150115
      4129.95421899
      5368.88099675
      2376.39617625
      955.43724692
      7527.22406701
      7323.26733536
      4326.98984374
      7882.15026129
      7932.40111490
      2139.00803238
      1597.50913489
      12251.31314167
      968.88886904
      5799.47863990
      8651.89891935
      614.47432132
      4076.40135114
      2617.82857660
      13629.48072530
      8036.97433839
      317.79175265
      4340.12397854
      -56.25260572
      6408.44302142
      -1246.44385267
      5471.42158942
      4717.04669499
      8347.91728385
      5993.08089769
      1673.88348650
      2735.30439902
      3524.09745601
      4163.38946694
      7039.09079448
      -766.23017428
      6340.78094610
      3037.02687265
      2038.15732285
      1891.95545516
      1407.07054196
      2816.26153149
      3059.81011247
      1411.11403806
      2357.82545638
      1086.94306580
      1654.18554391
      -1305.93048162
      -521.08009638
      -568.24969478
      20291.46011356
      6955.56050084
      -7779.48783596
      27333.49013034
      21126.47605676
      6322.21089151
      -2577.80273935
      9278.54881874
      3809.95722054
      662.82395402
      9827.98410603
      16761.11790008
      610.10573142
      3934.19629946
      -4187.82379761
      7052.69035639
      7951.76531137
      3662.17517691
      7883.38215249
      2296.75912733
      3609.59617085
      5359.47638417
      6000.14005712
      8970.84962862
      4721.77415514
      443.20800053
      -1412.93737125
      1089.40265714
      3031.78202287
      6536.62629280
      7719.65064212
      1651.76708962
      5802.47113548
      5959.23886232
      6052.79158159
      6593.79320825
      4789.41769521
      5751.32593518
      3625.54347012
      4984.02296288
      2629.71227151
      4660.01381913
      1071.42929942
      1904.55174018
      7702.36448746
      5803.85219551
      7797.45730891
      2824.44053524
      3715.86563868
      8291.50934882
      4092.21445505
      1641.55358349
      2679.33838927
      4261.37589305
      6143.65787267
      3556.86687037
      869.31439962
      3832.50719068
      6146.07041954
      84.15856468
      678.59800200
      2727.76626154
      1548.90569911
      19.81872668
      -592.58931152
      61.54846340
      8528.01343034
      1402.97357685
      918.25635744
      18623.84729949
      9664.79067025
      1951.78515487
      4092.46105186
      -1074.66399501
      -2093.94415784
      -1399.66650275
      6084.71287654
      4853.22858666
      18232.74426461
      65.36959754
      -793.54295714
      11494.47833005
      7108.17447809
      990.95952871
      10637.76569699
      906.28387590
      1077.52976707
      5634.15641826
      6199.69462161
      4946.29517943
      4390.92962027
      1198.96110336
      7240.20989737
      6524.89922036
      1972.19699005
      4692.79440528
      7665.18420986
      6123.64833275
      2167.83250129
      7435.63374824
      1552.94627492
      2593.09148088
      4856.36910924
      1763.29872419
      4523.85751348
      6409.78752625
      3365.81547275
      9546.54165837
      2859.65154276
      4078.73065239
      4038.56030139
      1725.17516506
      6043.27795593
      6769.59831070
      -794.94446601
      1719.71659861
      2619.31539870
      4006.06827738
      3662.00178819
      119.95223396
      3292.66507965
      2697.10072034
      -652.93166354
      2698.68836164
      3860.11705845
      3310.04011642
      1711.61540524
      281.78143686
      1230.53239388
      3075.83400095
      -1863.35246188
      1225.19657021
      -19965.59071168
      7286.13608400
      9419.51048474
      2531.58907919
      1571.10218923
      543.83179385
      6064.69039827
      549.14369171
      39.15051534
      25787.30355839
      -3557.33580109
      -3563.29236866
      3383.98626482
      4232.67868510
      -1530.88821518
      -375.91925901
      7486.05444325
      13050.98230253
      4590.02007189
      7051.28166388
      401.62076762
      3894.60270211
      4554.07757471
      4650.33914611
      12834.16071289
      559.38646526
      1035.14691351
      -2236.38780741
      681.06317364
      2844.75204764
      6205.44147751
      6367.33655382
      3597.79492297
      7305.59009214
      4850.76054894
      873.48196537
      384.87292186
      3532.78101161
      5311.75723909
      6798.58135231
      6760.61453956
      3583.93595018
      6624.58516299
      1716.72799733
      1981.07906035
      -1006.54847952
      676.68452090
      2966.56013675
      421.78297555
      -394.27137973
      1791.64532133
      4616.18827447
      4562.90265780
      2574.64088118
      1746.05930095
      5192.11258125
      5636.75360343
      2485.15302498
      391.02505712
      1891.73676990
      -1730.29904247
      2036.18785164
      2324.19028396
      -2342.89237112
      677.43790503
      1660.59719127
      -21565.61832636
      2379.86005383
      21947.27358352
      -5637.58579949
      7725.78063571
      7057.90214274
      -3429.65768524
      1963.79010874
      3840.99441152
      4508.27561038
      -1039.65904882
      7789.26323547
      -1095.19585144
      4861.71711074
      13706.70745758
      8174.16536029
      -1726.60601559
      -139.62401609
      8255.14075926
      1338.98714702
      1977.80632697
      -4967.42014939