<?xml version="1.0"?>
<VTKFile type= "UnstructuredGrid"  version= "0.1"  byte_order= "BigEndian">
<UnstructuredGrid>
<Piece NumberOfPoints="5123" NumberOfCells="5123">
<PointData Scalars="Pressure" Vectors="Velocity">
<DataArray type="Float32" Name="Pressures" format="ascii">
      -1510.95955655
      10068.77688776
      16519.66926372
      -35561.77368429
      -25076.91863939
      20253.09049461
      -20482.92742986
      10226.76148044
      8421.31986340
      -37979.07088609
      14932.52131276
      -24929.46055353
      1454.00229639
      14538.82086198
      -24289.64383439
      9338.68545831
      -28172.76905675
      6989.45797565
      5384.27817931
      -19896.22698744
      7306.54645495
      2594.15619137
      1729.91490358
      2550.89665989
      4292.00800287
      4656.10418276
      14891.95815823
      -6164.54844900
      4180.80135813
      4156.42348403
      2617.78554529
      -36300.09198386
      22514.79288976
      -15883.88817432
      13624.87177699
      -30270.18822953
      -3971.24377532
      17904.79088229
      3409.71883257
      1144.75027604
      -3814.93997209
      -16884.06994894
      2170.49749728
      2767.51691875
      -4009.85874105
      12936.24067383
      -5895.01505198
      -1061.56242862
      195.42849398
      -9167.92683786
      -697.75621960
      -3424.12318130
      -697.31210884
      -547.03492389
      -1572.14218751
      -250.98104351
      -2697.61642328
      -3437.88282060
      -2494.40756817
      -2399.25489092
      -260.34560291
      -977.51646832
      -503.35108168
      -37.83440635
      637.56072171
      569.35178615
      4839.40971414
      16982.28854637
      5743.67084358
      7801.95687956
      2823.20323068
      3378.02164861
      1301.89901563
      2880.58968275
      2972.13277286
      4875.16324423
      4815.83402685
      2544.13012817
      2538.78590452
      1498.69350931
      1409.08476374
      2501.29299363
      152.23152599
      4781.59153482
      3355.23202737
      3258.09555552
      1801.58263780
      1654.79510124
      4804.66088235
      2892.34937996
      1784.56474455
      4334.19556592
      789.97686004
      3958.51971722
      7369.43941784
      1274.47459023
      1005.80311604
      2597.41447977
      -1877.34611721
      1081.12007520
      271.78540418
      2638.11925420
      7024.71238603
      -973.31589734
      944.86006830
      -983.51523809
      -219.68881872
      -3945.41833545
      2863.43688861
      1770.16867969
      2451.54888730
      23.14642627
      -1121.15236924
      -469.16690269
      -4049.73204706
      -624.02275302
      7836.42244573
      -1512.43323457
      -1868.86181064
      549.31325039
      -1736.96809019
      802.09309890
      126.46848244
      3531.29836150
      2206.31642045
      -1242.91876237
      846.91141005
      2152.07744495
      -627.54338262
      1150.99784739
      4.67809450
      841.57400709
      5977.90158864
      5713.96715773
      8519.31853851
      1335.67887340
      6628.88327390
      4539.64064335
      3951.45479483
      5867.85258722
      5424.72379644
      5022.90491813
      3563.35479200
      3746.37939380
      4911.93834180
      6394.08018229
      7566.49091482
      3167.98617662
      4259.09535067
      2785.41441452
      1474.55208986
      6220.60948423
      11939.62147681
      4781.54604564
      3591.68136540
      3731.19543703
      3190.43037629
      2890.47822335
      6329.10099018
      933.27645956
      2597.03701506
      3588.39360861
      2345.60761568
      4393.48697893
      4588.62534927
      2789.78954467
      3878.80452773
      1805.73504994
      1780.16330239
      2802.50970028
      4321.51371960
      -2959.34872395
      -749.39746233
      -392.84205979
      2988.38267293
      -6736.84163754
      3595.88328807
      4960.97540576
      -1564.10486484
      -1112.25336089
      3319.79014920
      -1606.47985067
      526.10645226
      388.51767960
      2723.69452446
      -721.23183118
      -5482.38502635
      1932.38663872
      3125.15757654
      5116.15305220
      -1684.31213731
      512.20600881
      -520.05168386
      96.82268478
      1666.18848197
      335.67408973
      -186.42366954
      1276.44018373
      6746.58989537
      8982.43943596
      6151.33757964
      10449.50745460
      6725.78388839
      7035.77517444
      7773.42396742
      3133.26245804
      6782.67349657
      1768.80643102
      6775.23857014
      12212.65066539
      3413.83601518
      2156.45810964
      8290.80291443
      4488.53414111
      4370.18454115
      10136.32321571
      3641.99839728
      2667.63711722
      2057.95021918
      3336.55171523
      12133.13659588
      13130.62843286
      2171.20572636
      3621.71850858
      4041.84770536
      2909.90655334
      5326.63721427
      4040.95529404
      -941.45618350
      4618.03751905
      2657.67146084
      6218.41174652
      902.06921492
      6883.66103064
      8702.04237929
      1215.41578117
      800.37521022
      4590.86886159
      3548.04684919
      1905.27364891
      431.73748324
      2662.66826611
      7361.55970613
      1269.86986224
      -3124.35041749
      -2383.29378855
      7700.71684654
      1941.59334132
      4004.38655254
      -4286.14130974
      5134.96000341
      -1164.73352687
      3327.39483987
      5679.15366836
      -4960.12378236
      -386.07886316
      -970.40730299
      1197.32821869
      3517.46842430
      -429.30421192
      2643.74055608
      709.38093330
      -1797.80207795
      -146.10913402
      8925.07076298
      6081.37176694
      16162.97836927
      12313.38310049
      15218.44180164
      13933.93733528
      7657.76572974
      7184.35761093
      8481.75195538
      13782.42607580
      6253.42780443
      4311.65504331
      -4359.10685540
      2165.33007233
      10468.20050038
      6849.75847937
      9666.71077087
      3194.06705760
      2454.56212102
      4170.37119279
      3317.88566844
      907.85444335
      3625.48562188
      2565.07586341
      12902.31146958
      11878.94615067
      5104.01504442
      983.28109081
      2523.72609274
      2639.06247329
      3029.48876118
      1266.40288803
      3202.59219685
      5857.42988986
      5100.64240395
      4719.71406192
      3717.17907245
      4777.54305532
      2648.81972058
      1114.25222448
      732.08425163
      496.03437726
      4049.99239748
      5595.70102553
      5362.28462685
      2792.22886537
      8084.47055513
      2766.45638112
      -188.39679537
      1361.90889967
      5607.25830413
      3934.92923227
      -4285.52586071
      3026.12725419
      459.61408514
      3772.66681813
      1105.94838542
      4288.70244070
      3406.35304369
      1131.16273345
      287.64149064
      2210.61104839
      366.91754922
      2618.87277642
      641.86237591
      -2507.72377965
      -17305.06999468
      10489.13237939
      10188.07848180
      6375.40765443
      15784.63891811
      1625.63948286
      6352.99904898
      12360.13325102
      17775.93501423
      9450.71900015
      10488.83773679
      4423.29533338
      6884.88196687
      5848.54427594
      6740.26804497
      3915.22474195
      8712.15486157
      9850.82689315
      3074.03511199
      5459.01995548
      2536.50977114
      5712.46994716
      4783.17592269
      5705.16889977
      8948.64942019
      1416.74832055
      7178.83792964
      844.48807982
      4617.98651597
      3033.89499103
      3777.97026332
      4755.71596135
      6362.76984734
      7624.35254009
      5534.01977375
      2791.22609671
      -2179.65557994
      5826.28221465
      -538.00410854
      7530.44137030
      4158.35069208
      4069.74732170
      9863.47298614
      -1546.76073706
      897.36398074
      10817.01439386
      1749.55265791
      3971.49423083
      3564.39418779
      1423.63943166
      3319.91493779
      2751.80754499
      1958.10589484
      50.17569629
      3340.82487129
      2981.14767862
      2528.54271110
      2660.84740985
      2410.53350715
      2979.60894034
      1484.03660174
      1618.51041710
      1283.51913293
      2030.05460886
      -1363.62829778
      95.55703668
      -28807.02041058
      17502.02050626
      8714.87381602
      6471.12604893
      7005.31670550
      5449.89140813
      2823.55185658
      2970.52168778
      5408.48130967
      6110.22343941
      5936.52167706
      9595.86840252
      5909.11271124
      5582.20718252
      611.92591291
      3397.51632780
      9131.37927337
      5537.12943281
      4612.48853065
      11566.28205303
      3985.54674845
      5012.70033546
      6678.28812316
      3855.74728213
      -1575.76563773
      13030.41534448
      14730.56052217
      2601.02892523
      5140.26984903
      7568.83789829
      6144.72811593
      2703.16841726
      2763.15688907
      3188.50692635
      5769.44626425
      5752.30149152
      -206.41305904
      2547.18314504
      7898.54427525
      7751.40381764
      1084.20113030
      -391.16615193
      3954.54161816
      4705.91819470
      4200.27489299
      -1545.16557466
      5616.61002921
      6943.30085513
      5979.84084047
      4507.70829906
      4687.64835929
      1459.05089160
      1837.43741897
      2182.19841365
      2337.56057318
      2733.66575443
      1543.59082446
      2276.77783039
      776.56511854
      4018.56347404
      1603.15316920
      3544.08057711
      1369.20450974
      5125.50660100
      -2348.87487787
      -1696.66656694
      19145.59832171
      13473.29029090
      4767.52016310
      1492.23890788
      3784.88592857
      3665.56100212
      8145.73494973
      8618.82789762
      21453.24519908
      9322.14491260
      13116.48037928
      10898.68748807
      3757.96026656
      3998.24312365
      5554.69781704
      -4456.79219369
      4402.40979801
      13728.78385248
      11831.83968983
      -1125.28479742
      16138.04723625
      14179.61984060
      4113.60127004
      2471.12973488
      4268.86709468
      3647.96142084
      3569.56275011
      2014.37775352
      4038.00402109
      12762.76878822
      13106.95726918
      1517.82683126
      7869.73214973
      8212.60716072
      5180.88389740
      6779.81173470
      2938.59792547
      3772.04965803
      6736.41808024
      10024.00103091
      5192.96366790
      2880.06902288
      6608.44621750
      4904.62901975
      3139.60196870
      816.24985153
      4430.53459748
      4720.04350448
      2378.65107937
      6502.27352858
      3017.26144046
      -1695.50459964
      2468.15450227
      684.02075423
      3073.02973031
      2359.95007887
      1230.28042572
      1621.54886407
      1741.86995555
      4303.37263886
      2582.27128379
      2368.34979381
      2703.57072474
      4087.17468188
      -352.40875308
      389.84491419
      -18063.76538625
      4726.90587897
      4127.37784672
      6605.64956776
      12588.52680899
      4930.85418857
      4099.39137628
      7445.51108414
      17153.29435420
      8097.74344650
      12357.69403910
      7121.32612164
      3120.58092978
      2265.39419187
      7499.57808814
      2918.01552430
      14099.78394690
      7666.69427320
      6298.98900025
      5540.74628160
      8457.24988913
      6323.49427371
      5587.06040483
      6061.21591157
      6837.37248294
      6450.13821226
      4784.41119871
      4550.77552282
      5021.58875214
      6094.52642248
      9077.29617380
      4781.42481453
      6766.13038828
      4432.83436470
      8603.79958033
      4820.90761116
      1257.52907068
      135.14469074
      9259.18008140
      -732.37686414
      5883.89531548
      2111.80944560
      1471.51430654
      3417.10622784
      1434.58679021
      2816.55533842
      881.93074375
      5252.79870862
      6076.24799813
      4425.42909228
      1893.74016727
      2703.83802989
      1698.37340918
      388.08708887
      2733.42655536
      6999.90511193
      2298.43061775
      363.09412275
      2873.53807673
      3496.89313285
      3515.64442542
      3798.25329852
      895.71913666
      2700.12990845
      216.80168849
      247.96606021
      -35532.71009678
      11242.54018834
      27424.45437516
      9431.98498480
      3645.49939514
      4773.28230653
      9678.91156924
      21175.77562013
      13557.04105146
      8855.45730039
      3784.26160465
      5443.69882847
      3728.91322104
      653.27669735
      6649.68539498
      3978.35951968
      5660.16015393
      12375.00223517
      6273.00863666
      9035.43133176
      5117.10325109
      5660.57632345
      4625.13988737
      4844.34022309
      4507.03408943
      2277.50644592
      2364.65167808
      2863.61687067
      3259.35412261
      7609.91566259
      5941.55764928
      6804.40270955
      3174.35687765
      -884.66597457
      -507.78302455
      -986.67832956
      5296.74230147
      3748.69626887
      3385.30382489
      3630.22178494
      6544.77129061
      1821.46312943
      2908.08602150
      1809.81115517
      6598.64433752
      4917.37202416
      2679.37003666
      2719.73686572
      1550.64380982
      1427.72462886
      3578.08502706
      5438.44867891
      896.56675514
      716.70410748
      1555.49825362
      3615.87089914
      952.51025122
      2334.08032826
      5536.68356759
      -2222.77033944
      2188.62059088
      3371.29951243
      -374.06757564
      1634.88641817
      548.82904765
      789.95561378
      -32327.05726218
      14318.38895865
      7968.75120472
      5366.21998132
      9392.97300533
      11634.15595908
      2251.13152623
      7668.61485349
      403.14032777
      -721.35266515
      13345.41119147
      1447.95243042
      8709.05335691
      4453.88779854
      1681.52579959
      11768.79733626
      11270.03451809
      2013.73865252
      2332.53985143
      1331.12221640
      6944.58597136
      4341.50302536
      5431.53836366
      7032.37668003
      5385.81848739
      3042.20885932
      3797.15471414
      4303.55903840
      5834.07114437
      6660.05853165
      1661.68774372
      7753.00062422
      5505.54915797
      3356.21200145
      6485.83217083
      3589.66794849
      7091.04487476
      6190.12158182
      4940.67162721
      1261.65297255
      3085.76524576
      5433.27515775
      2233.86722653
      2624.19840287
      812.48014563
      5676.55091322
      5729.14092705
      2354.89320972
      2093.01945107
      2218.96513159
      3693.01051836
      4234.95853700
      4514.88603966
      2978.63985793
      -1452.36652332
      3145.98854486
      2081.47510202
      5072.51949816
      5196.71537744
      -87.05423045
      2641.57688706
      6430.84835506
      -1062.71255582
      49.39419212
      -496.05892653
      -435.86798817
      9758.18904511
      8057.10375939
      67.03125931
      12124.75905418
      3323.84913480
      6650.39891135
      6145.01680016
      10055.83973987
      15824.49578008
      6251.65611854
      5926.50643185
      4879.44428704
      380.03041263
      1265.87325972
      4594.97763298
      8703.00055757
      6254.45678198
      4009.72067204
      -2205.02253940
      2748.05417643
      4819.95277147
      4762.56154354
      3898.73764993
      4323.72900591
      1648.45768107
      3680.44836711
      -3030.16707716
      5281.16293400
      6801.54243153
      7236.16158827
      7389.46147959
      2647.67476825
      5170.56385542
      3021.07020219
      4727.24314416
      3003.55331925
      5841.40235040
      4003.90538938
      4380.35481551
      316.86484931
      5616.96537938
      5200.15955605
      6763.81686710
      3499.01592214
      5432.71880139
      3961.03232290
      4398.51777988
      2114.90257029
      -165.91204064
      2658.83665210
      5365.44094340
      4786.56492923
      3666.86762133
      583.33731661
      2165.88177112
      1955.21059062
      1635.75841825
      4899.46055398
      3084.33016061
      1031.93289741
      2155.30872621
      4213.16210176
      -211.04500970
      -1631.40990468
      -1184.32515714
      1265.71831775
      10814.06980667
      13381.78086731
      3490.08963237
      4474.46407370
      10971.22154068
      7995.35483001
      9683.00302013
      4326.58701071
      8045.13738609
      695.65540265
      8721.81433183
      11447.52199573
      8172.01636566
      5771.93312141
      19382.01389860
      1756.10579485
      10969.16394520
      4677.09923311
      3785.51206129
      2701.30249776
      -1696.65921520
      2186.27144405
      7796.12131194
      5985.61042347
      8037.14743539
      2806.74915664
      6123.35775182
      414.16895689
      -8233.46641650
      3892.55228707
      5126.35458805
      3232.40981215
      6990.93041411
      5674.47905138
      -2469.98465571
      7177.57909268
      7601.90049045
      7346.73906134
      2636.55531009
      -1042.75378445
      4741.25992136
      3245.34645111
      1913.96906959
      2079.13195237
      2690.96133693
      4289.44971712
      4476.61846684
      5056.34965017
      1302.93948055
      4523.48265923
      4687.53174220
      2314.19314168
      4246.91763805
      2577.03192527
      4755.36426960
      1320.26384090
      3198.76768985
      2533.36955053
      3791.28662212
      3463.75962266
      2797.72035093
      3292.68134943
      577.98170527
      -136.26611844
      -1201.58115025
      874.54785461
      11596.83533594
      8394.69020767
      10957.02648009
      4141.49899757
      13971.82643330
      13938.67677270
      -603.95423084
      7952.20947958
      6479.05558382
      1715.83199834
      660.07020807
      7908.22075060
      -3413.85810112
      2077.80302842
      6931.67783432
      -9748.58357848
      12750.03477561
      19444.02099367
      2520.91133068
      9493.25705969
      8177.39841281
      524.92273224
      2608.04562319
      1054.94404431
      860.85031127
      7206.80958825
      6388.86602171
      3962.49187427
      3110.76166628
      1469.99140129
      1330.47346320
      5837.25393278
      -742.15915650
      4218.00584033
      4099.55465211
      4480.90042884
      6352.27812794
      5027.00241662
      190.80379267
      4612.82880858
      4464.08935851
      2017.08732870
      5730.87501143
      9231.52592176
      4816.77516003
      2049.18600222
      5337.97185726
      3078.13157898
      -343.26045132
      3254.01736728
      4294.14460112
      6480.43414654
      5591.16566360
      4774.61872668
      2444.22410508
      477.40931640
      2185.71901289
      4063.46522125
      3216.10133029
      3012.26470999
      1994.60652751
      1505.74101561
      1340.89067512
      1252.21415377
      764.96488200
      452.00611155
      13008.55248382
      6496.57858974
      6830.78619351
      9194.17680625
      -249.75500266
      11794.00494403
      4272.49138793
      5591.54111649
      8186.19873837
      3797.69077062
      2285.37657382
      1273.06652565
      5911.78570178
      4346.61364132
      7301.50165168
      308.62628891
      -991.52782591
      1774.70878288
      3497.82920929
      3976.21091336
      8431.87898835
      3021.13784000
      787.71749594
      7359.40363092
      6788.52111448
      4450.22663440
      9219.75904534
      -2123.15167961
      7060.54581597
      1772.67041372
      6320.37347336
      498.55782097
      2494.07330560
      2085.02666364
      7199.86005570
      4236.63733724
      4662.77656596
      2707.31063474
      3252.36918302
      -187.40928972
      3769.12705426
      6381.43458263
      7155.83030128
      1926.29661307
      4134.99727983
      3845.10544935
      4004.27234207
      5335.35561005
      4489.18681941
      2664.58823486
      3903.21962658
      2673.38465038
      4235.30846138
      4638.45990170
      1449.82142436
      143.68789499
      3777.23035365
      4326.19023744
      5105.01852059
      4208.04369181
      127.15940036
      3278.37808818
      -493.52908976
      541.48688746
      313.67210065
      10.06221783
      8237.17717524
      16714.42747989
      228.40716706
      -3932.57275040
      -287.56976516
      5884.44157903
      25898.78511684
      -2901.49531079
      1090.76404316
      2270.77048622
      4340.90182298
      3926.93773103
      4272.40672608
      4084.12694234
      2981.02578571
      7568.63322041
      7949.77526419
      471.09599652
      -8987.31216430
      8905.31496942
      -1381.70560309
      7568.93758752
      1621.46932978
      1359.01192443
      4049.23580218
      5168.31887346
      2354.38341625
      9603.46079061
      -5460.98921028
      3587.12229981
      10230.77562792
      1940.99029652
      3049.32143532
      -639.86067850
      4186.78488148
      4124.01787902
      3214.58008804
      2548.96840654
      3846.58053738
      3096.04968011
      6738.53499103
      -916.77615374
      3690.50054650
      -172.06511382
      2435.13026078
      1937.96377704
      1587.05945140
      4003.17067656
      -1752.43372350
      926.13294255
      995.43177112
      4840.71017147
      3774.31855858
      3045.12558058
      4094.77592213
      3644.70771391
      1487.72997997
      1841.92379301
      4715.81679591
      2986.96466928
      1069.95680111
      4149.13779743
      994.20254252
      -653.70845997
      901.71721628
      1068.45901355
      13416.61884108
      3078.96411368
      4932.43462302
      13579.96945207
      10173.39781726
      2372.58488568
      4201.88306353
      5429.55648872
      2578.56180089
      6264.82230001
      2222.04948570
      1668.12699581
      6662.21705139
      4566.62178191
      6316.33342146
      1305.47669584
      2959.14554498
      3198.92012777
      6168.75479221
      7903.77576279
      2907.42359643
      3309.41057937
      7110.27285974
      658.35789239
      3083.90210466
      4673.00034785
      6219.22656036
      11055.04537046
      3718.80344721
      8618.69203641
      1950.29655500
      2917.75912323
      1941.72770742
      5308.96958426
      4386.63539191
      1700.42713194
      4288.91324175
      5976.61020456
      -658.29589659
      2706.32929410
      5689.89561858
      5494.96104552
      186.79707844
      2093.37352191
      11.10777126
      2170.49170021
      2998.02339497
      195.68564233
      2890.72581705
      2865.93788925
      1911.64476520
      956.31245745
      1829.93019015
      3101.87088997
      4926.90822319
      3392.59747781
      421.19785622
      2547.46665573
      1692.89872023
      3472.77164783
      1197.86113697
      2789.24463213
      -1544.67233721
      -529.41754370
      -1172.72863813
      926.01110197
      11297.11142189
      4938.82565089
      8454.78355035
      -24884.77185006
      121.89668947
      388.47113160
      4144.90771773
      4167.70798950
      365.86621329
      -1563.82614942
      6109.41379215
      4660.05585625
      4795.79571733
      3199.72280730
      20253.46089981
      10216.06228409
      2243.34216617
      -670.60921362
      1942.69478419
      720.78354115
      3803.94288734
      1747.34756411
      6304.59810382
      7027.57828486
      3899.51856693
      397.03089206
      2494.66893071
      3049.08356923
      4777.03909185
      3389.82678313
      5637.20378440
      3174.65623145
      -532.65338149
      856.62901778
      5395.34190132
      4528.64183788
      3998.43124082
      1927.02565931
      3741.98304390
      -121.77933124
      6380.41947111
      3537.77676665
      412.96616718
      5348.20381166
      -289.87341045
      647.87791400
      2209.47642436
      4486.35270463
      2560.27094479
      1510.22143848
      3919.93587109
      -936.11110122
      -374.40784645
      1955.79084719
      105.56542381
      1965.26757030
      3547.67395873
      1754.24799279
      1960.93447045
      3058.19364214
      5417.09858758
      5111.43590123
      2229.74625347
      -1040.04261460
      -834.01179975
      -633.15615248
      19403.45099973
      11841.41870805
      13268.59653173
      -219.85003643
      4938.19856056
      9280.43210838
      5582.16317296
      -447.34431804
      -2183.45141727
      833.08934385
      2257.57852733
      -1610.63851393
      3557.66417611
      1190.67153117
      1113.68089362
      674.85653429
      1224.53956331
      2383.15966419
      3588.21860123
      4185.63710023
      909.66058674
      837.72942484
      3810.09314913
      5369.12311038
      -3161.69900077
      4231.71159930
      7383.94158390
      -361.62031941
      6776.72848339
      4146.78095962
      -1223.05490337
      8145.57831283
      1510.98743592
      -3263.09303846
      2788.19116235
      307.59222240
      4617.29113035
      1650.72951238
      2684.20750629
      3453.05543023
      -103.38771915
      1195.93189427
      2395.15057399
      828.23123693
      -5996.21756503
      -407.62094057
      2371.46223720
      3627.09922378
      4256.56549211
      1449.25397413
      3459.13572475
      106.99936548
      -932.60360918
      -1079.17667116
      1308.55402509
      845.82060110
      2199.01089087
      2021.90623639
      1953.06275103
      2255.49495656
      123.66303817
      3260.22990610
      476.08859602
      -314.18476066
      2075.94667486
      143.32718907
      5737.98873585
      -12779.80452796
      9262.23294935
      6619.24953778
      10768.72643850
      2153.40692570
      447.43476320
      3664.50678947
      691.87288937
      801.33769392
      5726.81078674
      -2427.14113692
      2520.88672038
      3195.22443474
      -176.52205560
      4597.91347669
      1844.61332971
      11698.27612387
      -1986.75294317
      2263.68173976
      4926.16265036
      -758.38904294
      875.57968077
      1960.84839963
      2085.35955237
      4533.61278143
      6292.35355004
      -5102.44310008
      8280.21180837
      7399.45696241
      2321.42997195
      2652.44367944
      -8321.60107274
      -3683.22213969
      153.83391839
      3337.50004426
      940.37445274
      4883.77079701
      6594.19932164
      6405.70112684
      3306.53688172
      1992.76595255
      -3715.49316011
      679.00199468
      -942.63273160
      1993.50812360
      746.49351756
      615.24674982
      2055.11804624
      3475.98079789
      3707.18136245
      411.31860919
      113.48552828
      1431.99003577
      4546.29648811
      2898.95171634
      2552.64581058
      543.82902559
      -574.41365402
      358.42053619
      -183.40495609
      4196.95513286
      369.02163017
      698.98809989
      220.49793640
      1590.44411494
      8055.90563776
      5170.70838118
      689.69451867
      5596.85663273
      7190.96071140
      39.90997808
      2415.43796093
      2305.28796171
      -9546.18641419
      -1205.21576837
      -8453.34946015
      3309.73512985
      3133.77316635
      7703.80763116
      2695.91589156
      4126.22961413
      -3471.07746810
      9949.54084090
      -5171.26994885
      -1969.27000552
      10780.48506300
      2085.43439232
      -1278.10577969
      3519.70468132
      -465.03382419
      5265.20493074
      -3322.48374377
      5978.75664912
      -133.52120835
      8392.03718177
      -652.01851174
      3546.24630594
      452.82508597
      557.70319089
      554.62087226
      425.70971606
      2992.94546488
      4515.00640942
      4811.60324595
      4073.65940125
      1614.22019995
      2181.71267434
      3021.38540119
      -2031.89560970
      -1804.75112592
      4586.15881015
      -292.73499645
      1627.24114073
      3642.79459283
      4141.20931046
      2371.38242702
      1078.18256483
      899.67096812
      570.46837504
      717.06652433
      1262.49278387
      2080.32914144
      1877.74583972
      -719.79014183
      552.19077796
      78.06669332
      190.56579194
      -612.14661083
      1016.11775576
      676.58991339
      -55.53023807
      -19965.59071168
      3682.85516190
      3414.05633746
      5948.17923387
      1045.52907442
      16925.51901110
      5856.25444367
      5388.31931969
      2008.63480265
      2110.22205904
      1934.33660792
      -13273.74580977
      3508.03073274
      10742.10743078
      2230.38835753
      2202.23852655
      4295.64289459
      -852.79640488
      -217.12670928
      803.88096921
      649.14344669
      4603.09053905
      963.15613525
      1844.65903012
      8981.94139202
      1535.02379901
      550.44984165
      6839.66256321
      -271.97907664
      2863.63876827
      3036.16866960
      2721.80235586
      4450.06761239
      6860.89559791
      -1796.74646331
      -1094.08517123
      11.28620496
      3977.69957143
      3010.63229372
      1529.82076067
      4176.38033439
      160.45875481
      2203.44245551
      3123.19694948
      -2665.69147533
      -82.77419310
      5458.02909463
      1848.27065762
      1282.05372005
      1869.19329889
      -947.93318958
      1467.92767353
      1729.98976982
      1703.67566643
      847.25592277
      17.46261701
      3374.81945692
      516.61201618
      453.54474529
      557.29792144
      1610.72640605
      528.95676897
      -906.80522349
      -1097.56185547
      -873.62517320
      -1535.12081307
      -20562.26997738
      -1494.21978879
      7209.45155890
      5281.92390807
      -1005.48085522
      3504.29705062
      4786.79564909
      2978.72448567
      2160.77243002
      -2165.81357627
      2024.76455327
      10180.53761938
      -5203.61525913
      11850.71210971
      -4011.90298306
      5159.87199311
      6022.66840718
      6469.67779422
      1565.76812652
      9227.93523447
      1448.96673807
      3640.78241252
      3965.33620739
      6235.36549993
      1410.33686336
      824.00872066
      1808.03778778
      3271.76242333
      -1150.50912555
      1006.42874786