<?xml version="1.0"?>
<VTKFile type= "UnstructuredGrid"  version= "0.1"  byte_order= "BigEndian">
<UnstructuredGrid>
<Piece NumberOfPoints="5123" NumberOfCells="5123">
<PointData Scalars="Pressure" Vectors="Velocity">
<DataArray type="Float32" Name="Pressures" format="ascii">
      30883.59549851
      -34283.46143543
      -44103.20190706
      -35561.77368429
      -25076.91863939
      -14829.16701605
      -20482.92742986
      29575.59291613
      23922.39247387
      -37979.07088609
      -9444.66444018
      -24929.46055353
      -20272.94965331
      7963.12768126
      -24289.64383439
      12542.63735463
      -28172.76905675
      22392.49237896
      10181.09684253
      -19896.22698744
      -17935.50666515
      22391.55972544
      -14868.73856377
      10050.32730223
      -6852.72867653
      7392.99818070
      10350.49288520
      -10935.92371609
      18050.60216521
      9580.84469139
      15129.84286916
      -24403.78980440
      22539.93048198
      4916.78630966
      4489.28543859
      4318.35783314
      5790.05027568
      4576.12918596
      2586.75946908
      2043.99645333
      4584.25032300
      380.72871989
      6018.88121370
      -764.32606194
      -2987.37225679
      2065.37482446
      6553.53907432
      2774.71231845
      5004.16321369
      -1141.75330583
      3557.04016785
      -1196.93325579
      -1582.80403743
      32.46501728
      2978.32288971
      38.86942715
      -217.79848851
      -881.51189021
      1474.98906388
      121.30439724
      1463.36414474
      1160.45930170
      -3569.86725228
      1049.44429460
      4040.79815262
      212.01722059
      10810.46983852
      37619.08530208
      10694.75932188
      13619.46208111
      5228.32259030
      10096.59938797
      9307.81392137
      14889.79055971
      10483.03755888
      5938.63126053
      8429.47958977
      7590.20312779
      10135.54893278
      3970.90996592
      4335.87539611
      5080.39855678
      6469.43246033
      8827.21018631
      13177.84639996
      14483.07543430
      7848.87723633
      4414.87560217
      8798.48212829
      3113.70430823
      7287.02879152
      5227.53709101
      9043.09781588
      6224.45870713
      4469.61732131
      7619.84581063
      8302.66751679
      2980.14927474
      439.76780362
      2760.93144441
      9743.95344966
      8239.29076258
      2648.86159433
      -1925.75759357
      5082.60615768
      7017.84183685
      6525.95651240
      -2121.38054180
      8231.36792688
      1579.27438071
      1396.01459469
      1950.55822741
      3097.07080072
      5042.36687873
      -399.72359185
      -3352.99028876
      -2278.38780495
      1742.36342267
      3083.66277726
      3680.70994070
      9428.28249769
      -2850.55279026
      14113.79757088
      -1939.50500531
      -2935.05177038
      2079.00592119
      7938.64458019
      -823.35935960
      -6231.72916940
      -1020.89434365
      43.99619166
      594.87651134
      7848.77225999
      10718.37222119
      30513.75693135
      6174.56227684
      6021.83893516
      9193.89234817
      13349.82349523
      15212.79846781
      9391.40980345
      7739.08725338
      8107.23032175
      6553.10631344
      10259.68073206
      9248.87193004
      15692.03443520
      15467.85880227
      6345.66897862
      11211.54391253
      11259.48724594
      15646.22047783
      8458.00260019
      11697.05708462
      15575.27742680
      10388.12292160
      14319.35716829
      12100.13245296
      7693.38489456
      6291.24758489
      1861.26414184
      6399.58082440
      5132.46929459
      8746.38796708
      12675.98901535
      6580.07348487
      11186.31622231
      10682.55270751
      4379.04294469
      2738.29860067
      8908.17501842
      11703.30126106
      6037.65620684
      9882.29385106
      4347.67641751
      2070.04458872
      368.04176026
      -1907.30510372
      6702.05187396
      9032.36995272
      5921.30675960
      -241.98764870
      2850.19258860
      8805.19827031
      5494.15367154
      -1028.52219907
      821.41522702
      4629.78811486
      6449.85367896
      4238.84436641
      2977.52343773
      4275.94399147
      6538.34114465
      5134.67924522
      -2977.93682413
      -1775.73989308
      -361.73862663
      319.60085250
      203.63932021
      15199.02496347
      2263.06935954
      27559.20601962
      22670.84872784
      8517.51719689
      10082.91852394
      12684.15443581
      11982.45441176
      5458.25909966
      19143.93314392
      47119.59882962
      5957.77421151
      6556.25307087
      13598.40450701
      10267.77463141
      19280.48769251
      8408.37265344
      10056.60932428
      14595.18608698
      7387.47743536
      13179.53802276
      15022.63330484
      19216.01524788
      15952.60388262
      13875.92786178
      5401.45552572
      4327.12728038
      15248.27676929
      11696.90714796
      10845.97836379
      4897.58347842
      5087.77304088
      7963.83934298
      9129.97721187
      11728.72333989
      12215.23426452
      6245.64242682
      7667.46265729
      11209.51686566
      4895.32033790
      6851.35276646
      8055.64586725
      11872.86016816
      9138.89951499
      6319.05384764
      2019.73124037
      6120.93154197
      3840.40344274
      2272.29612412
      3194.79682711
      7590.18618182
      6680.09447184
      -1784.56249198
      5366.75397812
      7230.78384844
      7486.68867150
      1642.28307648
      5355.28022877
      4565.48374326
      3887.63644873
      5075.91901928
      7985.94135489
      256.08599546
      -31.49029636
      442.36777693
      9752.22456161
      12303.63389896
      41393.50844360
      31061.77163514
      12397.74369098
      9775.56596703
      17114.06920418
      28528.65198484
      10016.99980077
      19558.43352142
      2645.08351740
      2769.58918478
      22044.80368090
      23016.47878826
      25609.00488262
      12979.46171520
      9418.35536118
      4839.42212600
      4923.76153407
      19772.91131449
      8901.35828163
      5989.10786591
      5567.37426170
      6980.43112554
      8958.96718942
      13503.53615664
      13800.53058556
      11080.83210326
      2523.52727207
      11805.60677171
      8539.10142709
      19536.70789232
      9608.54239858
      5755.52247217
      666.13390969
      8560.29057381
      13882.50483622
      7111.05357381
      7127.19934199
      5903.39537853
      10331.41870242
      7306.20858093
      4310.14044677
      8137.24390367
      11723.15410596
      8059.33129515
      5622.60329938
      4202.84968759
      5864.43233889
      10186.23798454
      11324.78987426
      4446.74617710
      1886.59223883
      6154.97832081
      3082.21754454
      2020.56477401
      7198.40663509
      8060.99744520
      3619.10109272
      4182.96212993
      4679.75692232
      2641.49071279
      4119.87717474
      5726.96189958
      -2811.29675159
      816.35255712
      -17305.06999468
      9431.70439994
      917.85451272
      6413.53109727
      15934.80615193
      571.84571692
      860.07026275
      11866.95108092
      13539.26261944
      22930.71862505
      13399.53023023
      3724.55957343
      9913.46044523
      7778.99407886
      9104.16099305
      16363.71168427
      16976.20617853
      9054.15835457
      9878.54900501
      9384.16696498
      6469.21116343
      6009.51591917
      9783.70212340
      15321.43303625
      3501.79459907
      1960.69152278
      8176.90844421
      10802.95884074
      7458.36125147
      2886.28492766
      9105.59723870
      8390.04194606
      13090.46298723
      13750.03904529
      9437.78874982
      9077.83597550
      1502.67825266
      11573.41932286
      1152.81605338
      7729.17671738
      4495.93412738
      7525.32740730
      6706.91420972
      8288.05646647
      2012.66375849
      11288.41601745
      6067.09432406
      6065.68195672
      10533.19306749
      4557.23800957
      7714.52464671
      7048.58374986
      4050.77614188
      4754.26875132
      5230.99068468
      6087.16174047
      5702.10100379
      6739.62043606
      5448.75299966
      4691.92115162
      5283.32183468
      4912.81790719
      1972.53449862
      697.07449633
      -872.24565192
      -1790.83282180
      -28807.02041058
      14275.58593978
      12980.97512568
      17814.43186858
      29439.42642723
      7155.52119655
      5727.19210173
      6056.80811615
      8546.07352925
      9499.26536420
      8009.08781257
      10470.53293320
      19093.50012621
      6224.58488733
      14283.34277890
      9655.67700254
      21382.22039717
      1340.28628760
      8820.31106362
      4271.08411389
      7861.94380478
      13082.68030217
      10013.83121504
      12063.10352705
      6699.86541923
      13117.75357094
      8954.79647553
      5335.38460864
      17363.58262151
      763.11872753
      5662.06187183
      6177.83498955
      8038.04634680
      6458.41055334
      11533.47587468
      12830.55780089
      9541.68774924
      6646.22203950
      7188.86671132
      8122.45254218
      7803.39637930
      3852.01940926
      6609.27420520
      11040.99585325
      13940.55463625
      7306.31514729
      523.04029778
      11081.83468466
      13500.93585098
      5659.76134505
      7772.34756337
      9695.30817735
      5361.79743640
      6100.68809096
      3193.14714034
      5081.44912451
      5150.43359504
      1792.74827003
      4636.27731365
      6088.34835314
      3492.43129744
      5354.57304055
      996.69415533
      2682.35391556
      -202.40030253
      632.40354648
      18438.39941309
      17932.69979925
      17735.01119995
      6237.76120480
      3120.60154949
      1858.51743643
      7885.90616239
      8497.11555503
      24792.56870049
      21899.59347394
      9392.64399718
      11313.58680406
      2272.18803858
      10744.18996825
      4444.38415034
      11459.45411518
      15939.81215209
      15153.17012437
      16389.76163540
      12977.89471449
      5481.18484526
      4645.74620008
      19198.18255021
      10792.79091955
      12339.53460184
      9197.61741308
      4495.33635956
      8370.27241178
      6711.60389250
      9469.80674680
      9614.16857157
      11466.54768403
      4789.04564622
      9395.55272868
      7778.90080129
      10209.69762318
      14088.49030293
      7395.65059857
      2740.28074363
      7943.62833645
      4552.36173375
      7053.40334965
      5514.17033406
      7960.68386011
      9295.93489924
      9164.64433523
      7666.39161354
      4809.41933410
      10321.39655884
      11300.34516722
      4191.82241117
      4406.05186967
      6519.10287391
      8602.76073134
      3286.57859914
      4613.50087817
      5918.25134584
      3982.83149938
      6844.08535394
      1320.25615987
      504.75784747
      2742.14587458
      2746.72105111
      2199.50176677
      312.90091701
      -112.69706671
      -18063.76538625
      19929.60021577
      13955.88950853
      18405.63312465
      17926.23365672
      11143.82283756
      -1864.74422550
      20740.07684505
      19588.23798091
      16442.30542885
      11405.13300603
      8419.70551112
      18721.03325639
      5648.71531721
      10673.66596616
      9744.33566798
      16771.02683666
      30004.47942945
      16971.71024640
      13416.67973586
      4412.46684639
      5984.63530595
      12492.11112057
      16534.70598097
      16166.71040589
      11750.45458128
      15355.41325749
      10260.12328740
      5541.67214954
      5889.14703685
      13656.94063544
      10690.22731182
      10604.99813082
      7272.94146435
      1038.18218489
      11721.52617093
      13018.01402297
      9707.09628668
      5167.94947287
      3988.77702546
      7625.91392615
      10670.75664590
      8535.01405339
      5791.79525333
      10845.30536691
      10253.57724685
      10071.77370313
      6640.46880765
      5474.28296188
      5524.72778322
      11507.06963972
      9069.10405194
      4752.20252898
      6709.48715918
      10387.80323762
      3164.02355370
      4920.91505029
      5001.62110684
      2215.90329992
      3495.25537813
      690.61885530
      857.96751866
      2799.38225543
      916.42888361
      -1418.10193563
      550.20751531
      -35532.71009678
      -9821.74061422
      15613.75365345
      23767.11173610
      5225.98982824
      10941.94015421
      13248.23194015
      14151.84727371
      32937.36920950
      14228.06443356
      5256.26866312
      15240.56931638
      5158.43307465
      11613.85567219
      10024.21466281
      12193.06308383
      17804.17925249
      10563.62830168
      2590.89941175
      10375.17541839
      11447.67299939
      12786.63386580
      10395.26036889
      7294.96489743
      22385.63786615
      7469.06188440
      12015.43372849
      10971.87120616
      -3321.30823365
      12187.30903231
      9960.52424768
      19906.22669641
      16432.21909599
      7232.14313522
      6503.47533480
      4576.00587487
      11073.55620220
      11706.86772748
      11141.21148846
      10126.60180520
      10711.98981293
      5540.16818304
      6973.51008669
      9074.65220861
      7997.30151398
      10274.23530251
      10370.56141484
      10373.10975143
      1966.73521976
      7395.71331589
      9574.77828779
      4302.30772503
      7191.74241889
      8211.97592403
      3975.65697944
      2148.39449053
      3324.91147420
      7136.27515634
      5861.60805500
      3739.98924500
      4395.73941222
      5395.78095680
      3117.03952464
      2131.92983527
      918.56741080
      -1182.54414023
      -32327.05726218
      30089.57846817
      8032.31422576
      10288.15788328
      8563.99774832
      18156.24642626
      19157.21518849
      9611.83241844
      15709.04921455
      9297.02181505
      5735.49157837
      17312.46168159
      3764.86166146
      -7338.65441213
      11509.35860410
      20986.11630125
      19967.46855523
      22270.74131465
      10392.14770609
      13027.59321064
      11070.41598304
      7306.40098622
      9517.77740732
      9211.40754809
      12884.94625839
      18148.93598656
      21330.35424664
      4213.12351891
      7738.80393314
      1943.41626162
      13401.06026192
      6668.25021816
      10023.38238925
      11223.42113313
      12973.38958045
      13038.71161054
      12663.73947373
      12783.30978307
      9309.00974962
      9517.96580643
      11023.04313073
      4343.63394250
      8731.67127802
      6867.69407009
      7596.23492766
      10305.09771133
      9043.99819170
      6897.10898752
      4409.52185903
      8053.40282247
      7509.77367782
      7686.30100494
      3095.62514693
      7463.99941449
      6266.46284627
      3430.87555522
      2957.97493109
      3377.60129485
      3809.15282655
      512.37108562
      946.10572612
      4258.78277304
      1683.55618596
      2513.94883211
      1069.70337584
      1840.78624827
      20024.57942645
      20384.45276798
      5120.95470769
      5604.89625820
      13914.88728554
      19031.09183521
      34017.80283812
      29315.83830110
      15164.39539950
      16928.93232914
      7478.73000790
      14983.37775654
      16915.74111012
      8756.15614313
      11172.62634751
      6759.24616057
      20537.64957158
      9086.01564232
      23101.48916116
      5993.82857078
      14241.69823896
      8108.15335407
      -6872.69919190
      14222.68086392
      19460.26636328
      19147.66301416
      12996.44826595
      5553.21367341
      12642.99387393
      12945.54271831
      16292.13301145
      8615.86144248
      9180.78769187
      8998.47082434
      7190.46122195
      6062.83467951
      10233.18318587
      15495.86945753
      7551.30805935
      9766.77392447
      7960.32234032
      5485.85920525
      7839.64869598
      9113.74961534
      3479.29084131
      4391.21436775
      8943.51109754
      9514.10941962
      9092.89035212
      4652.93506286
      8017.16748182
      8109.57051554
      -197.73440308
      5964.12896160
      8087.07788882
      5274.97163945
      4254.45952837
      6212.61239657
      4682.11761827
      9.15289400
      520.49246195
      1851.26068426
      -579.27981691
      576.33335261
      -2370.95829096
      203.23123466
      19282.80854485
      33463.47696039
      12968.93403767
      15903.99636279
      25804.22460397
      15102.99487077
      9094.82021554
      21397.14298063
      8659.85672919
      16041.77240707
      13591.62531734
      13312.12238146
      9820.09290457
      8986.57956900
      17935.89679026
      5501.82541651
      10929.75769945
      7741.28363213
      9795.97043192
      12248.49486307
      10159.62496203
      16241.78946491
      12076.77979184
      15940.88595765
      497.91205591
      11506.68929032
      14008.46152355
      14847.24754772
      15007.73200345
      11682.47077448
      8230.22465366
      9613.53496023
      13766.01692819
      9955.31470563
      6317.61813007
      8327.95757571
      7287.53233619
      8006.29414391
      7677.82577648
      11904.37316302
      9568.33102348
      8944.95392964
      7756.38997310
      6730.90634523
      7630.86733527
      7804.99526652
      5475.43151320
      7977.63297484
      7652.25934087
      3374.51321468
      6178.94665980
      9057.50611279
      7902.18532105
      3844.61474979
      4626.41742834
      5694.95241227
      1493.83347070
      6086.38512972
      4369.53654616
      907.70206957
      3132.76819464
      2653.68060806
      -93.64809611
      686.99126124
      84.47804432
      -251.19153956
      -18644.03361805
      22157.84049279
      13778.45260753
      8968.38727573
      21547.05555995
      22820.15803943
      9002.68952699
      19613.39687779
      11393.29560110
      4744.84676869
      7947.49564144
      19177.38411465
      6431.41757747
      9289.88808532
      11004.43229645
      14954.23031556
      8247.22288482
      6646.93358938
      10322.84747437
      15765.55251994
      9300.08333677
      27028.62548287
      11968.49060067
      1549.31651102
      8840.77970362
      13124.73676247
      13759.93896740
      21944.51041659
      11137.49986489
      13481.16126115
      10103.65693674
      12120.09703413
      6590.07978980
      10550.56629740
      13805.57039350
      15211.52204060
      9667.35494200
      9032.88054114
      9947.32829581
      3554.82706035
      12646.04514027
      6540.72618118
      6067.40698291
      6972.22684173
      7035.80856431
      5980.60388652
      6807.27475070
      7106.45173628
      12024.14903602
      7921.55441984
      3079.24116810
      4685.21342371
      5155.56993727
      1970.27596859
      3875.70131452
      9016.08889971
      4212.06178085
      3248.05140019
      2486.79776537
      308.71931325
      2172.50190429
      1546.17474935
      563.37561386
      1626.04864472
      -97.96500084
      457.72610352
      23670.31171610
      25358.65946351
      8507.46086143
      28255.73439923
      13153.39680308
      15490.82905024
      15305.41446949
      29632.76921339
      13337.61458187
      16841.56828438
      12224.11676874
      9531.06955206
      12669.18247606
      13840.40808616
      11802.36363108
      20412.17956823
      6146.01362181
      15371.72766706
      12630.36903543
      12630.22743479
      10954.94275639
      13688.94131609
      10226.39062469
      9424.29171157
      7140.39608597
      13828.68592931
      17638.32199513
      8673.55951767
      15711.97914493
      8725.50746564
      12317.54193301
      12205.30375662
      12005.24042610
      9053.12828273
      7711.15372015
      13742.60267250
      11048.65667250
      6131.17170345
      15329.30125424
      19104.67002037
      7972.69199081
      6393.65158909
      7386.20527694
      9015.37947643
      6108.50584384
      10175.54586444
      8100.85386709
      5310.81723432
      9695.13595971
      3338.47376362
      2979.95750052
      5994.04700306
      7074.52249770
      6203.62336508
      566.39640049
      5483.78803905
      4791.99582713
      311.55202090
      3310.51586318
      2793.18087198
      91.47740207
      3158.55278259
      137.51638902
      254.30631500
      582.08847984
      800.71054840
      -18673.77264078
      13810.45709659
      954.79912326
      13364.12521883
      10232.00005525
      67.09799401
      20944.33856671
      24452.12077677
      9731.84262980
      16111.95035051
      -1589.96347258
      16587.02497459
      12594.70204864
      12014.85242771
      5413.91626260
      11352.27534691
      11857.49502662
      9574.74100890
      11584.82550131
      14142.03630242
      12349.54140131
      12408.81072078
      20945.31058476
      14251.78655609
      11258.42395351
      8211.30840333
      12295.48409685
      6821.77281320
      8804.90685317
      10153.40778409
      12690.51627747
      5082.67434833
      10235.00273620
      8898.56258808
      10696.72583599
      13855.98659556
      12265.21531302
      6782.97478829
      9066.72958676
      11882.51984117
      11600.71741923
      9533.34560493
      11968.95227727
      10105.23178880
      9319.81524496
      7945.72353679
      5802.73603618
      10979.56030138
      5937.96980884
      8217.05581010
      6027.41946487
      6840.83382358
      4517.57195979
      2702.77883816
      6439.71538738
      5575.64429133
      4798.20098589
      -1656.44757086
      1640.89935802
      3732.96736944
      -1616.46450271
      829.69158113
      3190.23445179
      174.90044867
      -335.46535749
      887.22693810
      12400.08154338
      9411.49184946
      20406.59852969
      4058.06841533
      20080.52432715
      25428.91911750
      12890.01592898
      11012.70877728
      13274.22623149
      3052.22842750
      7676.41822942
      10683.80926860
      16340.86452254
      19674.08792370
      13170.24101230
      7781.30214037
      5058.27130355
      9860.59374717
      16496.79024144
      19307.58172058
      5701.90161366
      12318.53752065
      25868.83474708
      8109.91853525
      7270.12427533
      17925.85657221
      21530.19878752
      23959.32245330
      15404.87341916
      19535.33219653
      12815.07553583
      14271.88235867
      7163.07270325
      12735.66883929
      13372.29506305
      10070.02740924
      10899.51912231
      6517.82346517
      12236.79868211
      10070.52284791
      10625.86448167
      13393.75050062
      13737.03900701
      6757.05617698
      6482.66525757
      4129.80346718
      7794.26318066
      3812.92476488
      7449.88039233
      16509.25452600
      -924.93123038
      7084.16271635
      6172.22600547
      7200.60509739
      4987.67195554
      2349.15681875
      3210.23855673
      -31.55937571
      2294.72446270
      4965.81959659
      438.97867747
      982.55555121
      55.56851539
      3226.38408591
      522.56974140
      68.18527992
      24432.63179494
      11585.72025677
      6121.01160053
      7988.83984348
      12181.76630580
      6146.73482319
      30667.90579923
      17315.79709423
      16174.11954592
      18535.24310126
      13976.11501782
      -3386.21519157
      17353.51062594
      26541.40334449
      7414.79538272
      10351.87645741
      6889.35453139
      9973.38575776
      12834.87356888
      6561.70887909
      15440.27955789
      16041.94585773
      9933.38407025
      9764.98136473
      9480.50877479
      11809.99268787
      10324.59851636
      4700.80260123
      1870.03811685
      23787.12358327
      13315.96838673
      10072.58944563
      -751.86032796
      13673.03507976
      13077.59609439
      13862.72496490
      12456.42945089
      6373.21248401
      11449.54567343
      11142.88303722
      7080.79381757
      7866.96013503
      7930.25985519
      10088.71302056
      2076.90852754
      1917.50655982
      11790.46632754
      4553.95309680
      6193.38252470
      8770.99372446
      8020.74584294
      5710.05556591
      4657.73380335
      6285.30877358
      813.95397943
      3281.41375839
      5405.45878228
      3626.24206276
      2428.95340019
      2071.53479841
      334.38305041
      3619.16095410
      43.90462099
      1405.54627010
      98.31590432
      -166.15799569
      -13240.27315330
      15586.16591208
      34873.91586425
      16573.62358332
      14395.84560928
      -5786.56994733
      32342.37471601
      -428.96932044
      -6202.91477316
      1009.33999924
      8985.22029361
      15887.70173802
      2032.05232971
      8213.47523742
      17106.93095835
      12599.08642134
      11546.62482862
      9512.64756937
      -4916.13509097
      19750.52104916
      5985.12466770
      12800.74467273
      13294.94504521
      8999.93006312
      3852.17219857
      10459.35750481
      9381.03654078
      2633.50517398
      10971.01869726
      9082.98242708
      11626.52429567
      18735.51078135
      12258.59415247
      7082.59501995
      15249.94990705
      10492.14720032
      13536.65618091
      16873.32528510
      5676.66036118
      5988.21333139
      9941.79060935
      7921.79179822
      15672.88360064
      9395.32086429
      3332.63473140
      5741.77766881
      5317.92419535
      4288.66449750
      9355.89805433
      5528.25519027
      12368.90455540
      2298.98740857
      3412.50171850
      7946.26196062
      6480.16634753
      3868.62290074
      4156.76718411
      7041.01478638
      -291.65450538
      3236.34882924
      2974.15265859
      1645.27367695
      -415.75663003
      1409.33241055
      -389.35814402
      378.69268999
      22627.79252431
      13771.21751542
      8329.31242989
      10060.22302588
      23465.72515006
      -3528.72995850
      38103.45256899
      9486.98429430
      9459.98901638
      10179.91444511
      22254.34305063
      4125.57872535
      9281.89201461
      6979.30371268
      3780.07046224
      12582.45727155
      10971.40686179
      11838.47160159
      13996.98173059
      11358.22252398
      7093.49995716
      4625.54879073
      5802.97454491
      6672.82670606
      11419.42017389
      11321.60717118
      13083.23187821
      4210.89840684
      2100.88484308
      16078.45791039
      19914.69170794
      3904.17621226
      10339.23248795
      13504.64752800
      6481.65757732
      17060.09980627
      9328.88320339
      10461.31786571
      14967.73488757
      6561.04793080
      10566.98953260
      9757.97457881
      9746.93568106
      9455.46851861
      6456.76989253
      5581.09131402
      5199.21264435
      5189.66451116
      5314.95058674
      4390.02013719
      9710.99902592
      10629.19490606
      6356.92825263
      5760.65017986
      4410.92186697
      3570.81978153
      4226.05584993
      3670.20613111
      2268.03658752
      236.56298424
      2061.56028825
      3834.11183696
      -549.90816379
      1485.50342931
      -912.26583556
      9.12510764
      6664.37689553
      32030.76256817
      8318.97119250
      16720.16962406
      17008.24139118
      2599.72737256
      -12186.21144062
      10859.64321979
      13652.70946083
      6243.70118792
      16170.93303242
      3039.39277786
      9388.66601734
      7291.10063657
      7388.06621601
      8573.07017712
      -468.09744749
      10686.69588575
      5103.44573335
      -7606.94548901
      7975.00846999
      4449.98775649
      5265.30851360
      10368.15082911
      9093.22508677
      -1949.56463688
      10298.87407522
      9518.87699470
      10548.07565952
      4155.15717520
      9637.08593549
      12039.07217570
      7041.62299115
      13732.85280557
      13722.94741383
      1711.09181688
      5334.84665884
      4563.84283318
      6283.09012343
      12254.28846021
      8341.30096847
      10451.35823691
      7718.60802569
      8601.47278429
      10178.62351397
      6184.35690925
      6087.29772705
      5310.77750250
      4091.35120097
      6400.14334224
      5518.13446857
      7887.51443444
      6940.12475318
      2541.83913492
      6401.40329361
      5438.62357448
      4205.75139922
      4749.54994693
      6338.47668396
      2823.02387348
      476.70097283
      518.93229257
      756.17542536
      -119.07454547
      315.03457622
      -2572.68521781
      -19965.59071168
      -3369.17319021
      8570.75814366
      -4497.92461890
      8787.15817940
      12650.27940573
      12085.51294056
      26748.51059770
      7541.68881177
      11613.71611498
      5550.25908473
      -8125.49438740
      21581.43562611
      11638.92747263
      1374.78144517
      10376.19128758
      8729.59061392
      5454.52034330
      -1075.73789150
      2708.18276177
      6084.59187840
      1904.24850300
      6811.29069941
      10868.60614348
      14600.91486740
      23766.83539064
      7765.93473414
      2219.95158131
      12621.05661295
      5419.00060264
      8070.11685758
      8515.24140933
      15180.07747908
      7291.28291971
      6261.62979605
      6528.40477804
      119.92543971
      10174.57304384
      9030.23172014
      5997.80283078
      4186.71426123
      634.54102257
      7921.56773152
      10485.15329613
      13855.50409765
      4280.89697512
      3173.07687121
      6203.37028177
      3010.74012367
      2549.17509075
      3183.27730941
      3852.78349009
      7905.68116634
      5394.71056169
      3823.29942056
      2712.47257829
      7494.34806731
      1617.61586314
      954.53801968
      930.27103274
      1839.03496955
      3940.99315444
      -1261.24233830
      6992.28384544
      -1342.04556464
      4999.19464857
      -22128.48930382
      -3561.44011906
      24131.20017034
      23601.53278621
      20351.13399387
      5892.29401192
      -6572.21844311
      2986.72612258