<?xml version="1.0"?>
<VTKFile type= "UnstructuredGrid"  version= "0.1"  byte_order= "BigEndian">
<UnstructuredGrid>
<Piece NumberOfPoints="5123" NumberOfCells="5123">
<PointData Scalars="Pressure" Vectors="Velocity">
<DataArray type="Float32" Name="Pressures" format="ascii">
      486.73812061
      4357.64709009
      5366.69871157
      -35561.77368429
      -25076.91863939
      13257.36937399
      -20482.92742986
      10367.79329902
      9919.50142802
      -37979.07088609
      12854.46366679
      -24929.46055353
      -1309.76887267
      12977.45801168
      -24289.64383439
      3236.27486571
      -28172.76905675
      7062.14430088
      3130.22177376
      -19896.22698744
      7586.63855137
      1689.07332145
      -899.02615177
      3703.26590295
      1317.16762160
      5948.51254667
      10528.89760373
      571.64924710
      2749.12558596
      -189.90770992
      -656.75827219
      -18880.60093183
      10191.00071873
      -10501.82563949
      13624.87177699
      -4587.34932887
      -918.19494198
      9546.36326687
      -153.85800725
      -1957.38058277
      272.47888016
      -913.45670675
      -2578.00817565
      680.07861735
      -3264.25895379
      2087.98231757
      3196.69850705
      -640.71935575
      -2090.75228003
      -3651.41788180
      -1108.83387802
      -2036.39535580
      390.82075075
      166.10215170
      1664.33600733
      1209.98123516
      -581.67996340
      1035.11554220
      447.75988971
      1152.64624343
      -391.58991904
      -124.53359797
      -695.51045649
      -1370.14827067
      1341.44062153
      -2942.11914911
      8942.31147778
      25193.44481554
      8376.11371508
      10543.60146797
      3324.61387511
      -5370.24819755
      4959.16711791
      2432.44188992
      1994.29407640
      5788.31088205
      5545.99892286
      4694.07550693
      2437.22162146
      1848.81978425
      5093.34842194
      3069.62210388
      5620.05352652
      2096.65957190
      3165.69239481
      -1626.02880277
      1927.24753148
      3488.09315941
      3218.36530447
      1523.94365113
      1876.05328224
      2415.34419861
      -388.75937253
      2797.52961398
      6337.00135700
      1935.91770683
      1476.43111503
      2937.16674906
      -9137.23412095
      87.95842042
      -1149.15881111
      2638.11925420
      5301.54688302
      -1383.54138597
      4939.83020084
      -241.65726356
      -545.31277150
      96.84708887
      -989.96830252
      -2664.31432989
      -771.98165807
      -260.48800323
      -1039.05964257
      3768.54021590
      -7398.08876610
      -2790.84755875
      2799.32511951
      1788.34057405
      -4217.54820858
      2270.96007038
      -985.30992155
      3871.27440656
      -3816.80831819
      1563.06454750
      -1820.59720791
      -461.24831031
      -762.39968140
      -1477.98775818
      -1207.51921397
      -717.85840835
      171.28869844
      874.28840085
      5169.70594237
      5039.62971315
      7868.69861946
      1739.57799926
      6132.65210160
      6274.33703820
      6246.81871845
      5945.13230652
      4955.51674927
      5687.82175691
      1835.70696804
      130.61052943
      2426.72434236
      5555.65116623
      7010.93343085
      5716.70016208
      5025.14986389
      3648.50529131
      3546.18207090
      5317.50492624
      13490.72785460
      3350.55287985
      2404.74498683
      458.71631001
      4394.59962151
      1665.09572314
      3668.78849115
      -16.40458970
      853.60976882
      4322.37442218
      -306.32379023
      6838.52734709
      1282.97743062
      4851.18063535
      2646.74325940
      3847.33450467
      1931.96576399
      2396.10661207
      1898.50798916
      -926.24955671
      2213.33991623
      1564.98330933
      2971.22885247
      -7095.81456044
      1641.80724709
      3398.69073479
      -47.01972316
      410.01401112
      2616.22112903
      530.29215527
      -991.82482083
      378.50019589
      3960.75646492
      -3746.43426891
      -4868.41317613
      5008.06063720
      -1358.68623643
      3278.74630344
      -3141.63970452
      -2886.29754006
      -1551.20367707
      1606.90591250
      714.38427167
      1383.57786477
      -486.35318073
      1008.88758724
      7172.25788454
      5529.91576455
      4986.40723045
      8056.12803873
      4510.26030319
      10223.27246561
      2051.32343588
      5297.10193073
      7345.21026282
      3279.83615041
      6199.07483337
      11984.27266771
      6567.74531357
      5763.83242019
      5803.42699569
      7134.10817576
      9196.68264134
      8468.97589503
      5298.10075084
      4780.24931456
      4050.38496417
      4440.94842955
      11162.17496029
      16930.20685483
      6264.77818047
      2189.42411929
      4721.19663013
      5229.40181872
      5689.13335504
      4180.76104425
      1211.12551500
      6454.69059632
      2498.25544624
      3826.01026915
      2452.64045119
      7339.07973006
      8033.13764347
      447.86105246
      -1199.56557084
      2643.34471971
      917.45016699
      4054.78412512
      1088.31990106
      2555.71709095
      9298.03826009
      -347.95445320
      733.92221047
      311.79953903
      6404.70196687
      -1653.62683254
      7211.10795612
      -3932.64714729
      4717.01349101
      -1290.20568257
      3966.71245729
      5888.70297004
      -4889.37985097
      105.09331683
      2234.79403060
      787.59761887
      1200.84790273
      743.56541132
      2755.08376117
      -1382.27349269
      -2860.35175425
      1095.52756461
      6661.26398863
      3924.52000760
      22406.25303110
      13115.28024846
      10334.58299611
      11718.27175958
      14538.84614753
      12685.40025071
      4699.95805337
      13186.08704416
      6302.22961847
      5258.67132302
      1502.47700085
      5634.82319594
      12044.71267062
      8151.17314298
      7028.99429302
      4460.81788926
      4345.46730680
      3665.32351484
      5922.90977474
      4094.91337980
      3508.37274004
      3289.58127521
      9897.56240316
      15846.37069421
      2548.00600926
      2476.97040271
      2490.13776745
      2207.82512819
      4693.14394106
      2222.06758900
      -1779.44632718
      4827.75639612
      8130.99698980
      -1302.21044802
      3727.82107990
      12730.88258058
      2911.19872036
      1876.93700403
      2165.01852203
      -217.23492545
      4806.27274289
      1820.64774215
      5695.57247904
      2942.17405459
      2851.44308348
      3070.39212738
      411.88214821
      -324.89720214
      2895.99771696
      6422.16309336
      -1379.56934578
      -1283.13997572
      1652.22944613
      3138.42910217
      888.33272040
      4098.89641226
      1508.11346914
      2320.84285598
      669.72307270
      1665.69709452
      1769.48593330
      3112.76268004
      -1594.80886582
      1270.04790925
      -17305.06999468
      8123.57398636
      12197.31686403
      3830.56837333
      9960.97781368
      3623.36712830
      6702.73947655
      12148.80334861
      11628.59201333
      6203.40543303
      11420.36735726
      7123.27076816
      7592.33030502
      7709.73628874
      8788.11093927
      3396.53601460
      9621.18686030
      6731.93128098
      8660.63822887
      7441.76068208
      6228.68659580
      5291.50907839
      3838.67643988
      7837.35568272
      10159.66932385
      3190.22655941
      6908.37092768
      2862.61195419
      6102.82621826
      4038.12324035
      4627.29205711
      6131.34875824
      5212.37502260
      6766.18066475
      6057.60143451
      1024.54959466
      553.53422067
      8192.77087561
      -682.16213328
      6144.56564747
      3339.44761249
      1827.11939844
      6351.20993016
      -2063.63466307
      4253.47129982
      8215.30675095
      461.71121489
      4148.72217010
      4059.88638966
      -779.87480277
      3339.73839237
      1104.09668673
      1203.44121177
      745.26404025
      790.83200398
      -541.38979776
      1687.80428934
      4196.49378806
      3478.26984023
      2066.53292435
      2672.06715576
      155.05838538
      -2223.41341648
      2162.86660787
      1070.20340422
      957.91389112
      -28807.02041058
      8391.37059617
      9187.65309262
      5868.26028995
      8625.36819811
      3990.90621791
      1824.16580752
      2273.46467787
      5744.99120357
      8517.18595132
      5849.48120604
      9560.28547147
      7789.85910131
      7835.56564496
      1714.57325658
      4412.81078066
      8437.08388554
      7501.46343989
      5985.02944334
      9763.55857457
      5301.90751444
      5623.79293130
      7886.28735272
      6474.60413434
      1066.69016237
      12570.04443894
      11023.20570621
      2964.24487232
      8957.87799507
      9131.72472362
      8064.67561716
      3704.39578216
      2605.49047055
      -351.23526570
      7953.13508567
      5345.45127526
      -1164.32522831
      6834.63730387
      3785.01806348
      5208.61205660
      -3173.69450138
      3310.04857778
      5297.29522079
      1501.78822998
      5109.77296129
      4699.86455969
      1442.22589034
      5292.83971194
      1492.27431085
      3621.78843659
      4284.61573346
      3711.52891860
      32.24779355
      3830.14940963
      3943.50118024
      2538.91813335
      3013.45039367
      484.39389298
      1987.05189180
      4029.79515750
      1993.30196021
      2060.27906694
      -711.90275163
      1624.50427759
      289.12511446
      1295.33821912
      18423.65857494
      16122.01959354
      5328.95815309
      319.29817283
      1595.03409163
      2049.46749928
      8716.18876109
      10151.93484063
      23146.93120314
      10075.91671738
      11986.69623118
      11797.08497081
      6268.59891153
      5863.71146440
      7039.78214370
      -3630.51057692
      6717.65441651
      15034.56534759
      10922.12566091
      980.95818025
      15592.19697450
      13950.29615899
      6566.46874534
      1323.53382701
      6664.82566189
      3297.82353592
      5127.71826268
      6233.66791961
      4554.49523776
      11654.71921565
      11656.81314677
      3167.40791471
      6325.74995009
      4008.83634807
      3378.49700722
      3239.73154912
      2565.69362835
      7273.76436879
      7311.24813423
      6719.52708205
      2520.65451568
      4899.54450149
      5155.17363075
      2737.75898650
      3845.25143215
      623.97016065
      551.75882293
      6187.64103048
      2759.29029626
      2872.51661359
      3470.49396553
      393.57430962
      3597.81179306
      3904.09842644
      5342.06458391
      -668.33969757
      4057.21632464
      2197.02998331
      3292.40242003
      4406.27176461
      4864.20068089
      5260.12776457
      358.04531030
      4181.65654526
      -613.50989091
      1069.89211667
      -18063.76538625
      4373.44218329
      2891.91158232
      7104.60210639
      15097.37421854
      6818.03731810
      6229.41546173
      6403.80276379
      18938.68806037
      5991.31395630
      11578.78083549
      8475.44423251
      5146.54760957
      4965.42182018
      7710.91489902
      8247.36605422
      11455.08609156
      12790.35929270
      6880.06212738
      8511.42273478
      7565.01461409
      7237.69513959
      5907.26196952
      5248.54720326
      8985.27483362
      3491.37507699
      6611.94197149
      3576.00648462
      3543.81558561
      4441.23825740
      7119.87942483
      5790.59683405
      5339.65832067
      2879.47210554
      11731.98204980
      988.25112599
      -1199.29705223
      1457.95411232
      6773.63122560
      8319.21668094
      4809.04338810
      2876.74760910
      1424.12025746
      3889.61864379
      6172.33700072
      868.99333547
      1894.73374650
      3293.61115799
      4967.27919714
      3755.12912118
      -913.19467282
      2260.76747697
      1898.61704809
      2406.16853092
      3082.44192744
      4165.97459883
      -602.18430467
      2306.30263633
      4315.29195107
      2820.44383668
      844.82395034
      2018.10974070
      1957.40243280
      3344.99154174
      398.83463723
      -495.33166203
      -35532.71009678
      11980.64917636
      27115.32275898
      15893.72835479
      4369.89053464
      4663.50214981
      11495.98072489
      17131.01570352
      21280.31108935
      10089.93552742
      3597.31949991
      1647.75474113
      1141.87605162
      -720.04173423
      5660.45062537
      5675.04859257
      9046.50046762
      13330.75929400
      9305.25171103
      8372.36297472
      5374.93673439
      4876.37757512
      2001.45880636
      -303.17577103
      5538.35769755
      1320.60589687
      7212.08781332
      6425.96351869
      9398.96266500
      8167.46324616
      4024.16156036
      12864.68963921
      4655.61110766
      4507.91960128
      7169.92937521
      2875.21373619
      4039.11985275
      5069.46299182
      2219.30312679
      1689.48557575
      5440.75475447
      4444.42678067
      364.06930547
      7699.69957273
      6150.73231844
      4969.32665602
      4617.53318462
      3385.96451774
      2709.59634693
      5715.82111412
      3790.89388173
      3807.69460379
      2676.37651860
      -1354.14659686
      2134.08479638
      4319.39576966
      316.46184157
      2039.96182026
      1127.50094113
      1917.35630411
      4371.40806507
      3308.50748037
      2758.63890010
      1350.08993169
      -1305.31614322
      62.84040235
      -32327.05726218
      15576.44361252
      8962.01660027
      7942.79754091
      9651.92634067
      11167.16383262
      5012.04849879
      5911.42765351
      4699.96504754
      -4113.06782647
      16798.17648881
      5721.91638571
      6812.71060110
      6648.08638397
      17.23915771
      18425.57860455
      8382.72281673
      4660.03170226
      9560.40790482
      6584.65215650
      6143.26485870
      7762.75000023
      4392.16725522
      5930.09337350
      1387.80723639
      3375.39431924
      6788.54786301
      7892.71996837
      8488.12906691
      2331.80016174
      2897.83152622
      5530.08613739
      6121.48511432
      1761.32090966
      6329.90607739
      4505.43558605
      5731.98295480
      3870.57173805
      2906.99407386
      5481.28554082
      9210.90429500
      5431.53815457
      4868.64488455
      5631.51559829
      7150.56940892
      5365.64960344
      3018.69622605
      1094.85292351
      6592.10430119
      3203.78169664
      3956.60630522
      1880.65676348
      4394.79267227
      4476.98356895
      1693.57598232
      1729.68788622
      266.59521568
      3804.33641854
      1833.24342655
      1794.30798859
      3070.97333753
      2425.27573233
      1705.42947293
      366.36837515
      1870.86599335
      5680.37299418
      10370.62867157
      7461.32917516
      2541.89468752
      15195.29521508
      2914.87992216
      8139.61573554
      3738.83629820
      5585.96858616
      28364.05555069
      4746.35040978
      72.74805336
      11957.35494954
      2766.20949735
      3874.89565074
      5303.83008042
      11647.60576054
      3239.91987151
      7376.55183983
      2452.31255934
      5091.87908626
      6610.34364212
      8317.64463959
      5664.73764362
      4449.39544509
      1922.97746963
      4122.99803438
      1065.38117432
      1252.07759715
      4479.06916518
      12359.38004484
      6606.51848472
      6861.21807039
      6047.71975700
      3559.49225968
      6266.02198834
      5773.89186459
      9292.98631522
      4022.37927497
      -3454.19173625
      2122.58266836
      4020.57293952
      5566.87849214
      4883.43231828
      5364.69288510
      5758.12730753
      3019.57367537
      650.84760567
      4485.06916141
      3239.33855362
      2584.70178713
      3882.48704116
      5874.06300462
      6157.20717951
      922.72175930
      3321.64697390
      3564.71683558
      3311.87096983
      2050.64501765
      2451.95280540
      1750.38892070
      2384.74624017
      1571.42562316
      2540.16919164
      376.65132555
      1379.98022347
      -84.73572643
      11613.87034331
      13212.43478368
      2727.75639609
      8162.71065143
      10238.32269034
      6030.76537671
      6795.39223969
      6517.10348840
      5656.10288723
      8108.93432452
      13231.53156996
      11296.59648076
      6019.05480559
      9644.17412998
      11208.83017219
      3406.83558729
      1940.32341985
      4434.82819298
      4550.14421862
      5416.84354892
      4964.65506384
      2254.50933461
      2920.67845788
      8821.57634835
      7822.81999317
      3447.20857881
      -1632.53950543
      2681.67068146
      2741.14549635
      4507.79860346
      5733.07381474
      5281.90623070
      5380.95218021
      6800.64609152
      6777.35293964
      7906.04885158
      5725.22913541
      3698.94703496
      6561.57122170
      3248.50374201
      -567.65973180
      5003.14845626
      4417.02539093
      3525.67321341
      2097.14110360
      3162.14464730
      3586.34207041
      2297.54797093
      2822.24244976
      2178.84881773
      2294.08066861
      94.45566841
      1367.84612044
      1682.42806667
      2944.00973400
      2140.82549338
      4435.58129591
      4192.39157732
      2549.83226269
      2234.55686433
      1273.03478804
      1608.95169971
      977.94748040
      226.71755392
      -375.05949978
      1071.46107293
      -83.41370872
      10044.59213381
      10633.87434440
      11079.91292742
      8144.21989391
      15929.03447127
      -9559.45475333
      1247.18984031
      7685.67698075
      4991.07878243
      7381.30972899
      10038.86606619
      8345.49283472
      9058.64150055
      8096.45627443
      -4409.72241992
      5315.19192916
      16077.90796753
      8801.39855676
      4511.95055258
      4360.92590849
      4294.81083226
      3043.55421234
      1280.58005090
      1743.94639818
      8171.55456888
      8510.18175173
      3089.52872332
      5453.79289523
      140.53355711
      4314.59452790
      3689.02205593
      6808.65694683
      4116.74692502
      3845.83163408
      6898.39809471
      7361.46575339
      4581.94426085
      6464.48503588
      2487.51829489
      6895.24117283
      8725.80681354
      5753.81938714
      3025.50394938
      2833.38325710
      5996.80117757
      2982.19716741
      2967.17300071
      4627.95946455
      6580.39964155
      5683.52676134
      2581.57478511
      2940.32569062
      2608.11306483
      3937.34393206
      1301.15288752
      2112.15642436
      3044.86420221
      2685.93778099
      2091.00735719
      3616.78054176
      2306.58717497
      725.81600562
      640.78089592
      757.54793187
      638.90583388
      13925.41648386
      7641.40570546
      7991.53697703
      -7685.67482408
      2404.01586018
      7993.95989064
      1980.29530824
      14504.59364887
      15438.18401568
      11498.89279944
      10299.07494015
      -1500.97744670
      3570.74818949
      7133.84068255
      -875.12613904
      1842.44617819
      -774.49747602
      -14.76210107
      6131.12718328
      3025.11612087
      5035.78734667
      4375.96839037
      1501.70215027
      5652.63292269
      7940.25597570
      6690.38492242
      3819.73012509
      -3552.49072033
      3181.64493327
      3779.28714078
      5878.59456776
      4915.21189157
      2952.98697648
      8483.07664167
      8248.49983156
      1573.20984314
      4187.52311677
      4611.93605371
      2745.79733713
      1813.78369046
      5737.72104911
      5665.81963602
      6210.80757666
      3593.62623729
      1158.02023849
      5528.61104371
      5468.68132844
      1587.88495733
      1321.07483350
      4661.69793806
      1700.47118676
      2635.87331210
      2943.09636607
      5605.97862361
      1460.65347446
      1831.74065062
      2554.46926655
      3855.27557673
      4704.89711365
      1218.87267035
      1100.54786514
      1442.45940589
      3223.30266971
      -599.80846147
      -627.44244667
      850.25034896
      9396.78986931
      22712.83997429
      20547.06775695
      -3177.78614635
      2632.78377085
      6235.13612176
      25333.97036337
      -11868.68906640
      -2017.65831368
      1527.76721109
      4542.21669686
      14360.49748299
      2079.16660031
      5684.81811647
      2410.99015662
      -808.80832997
      9489.97427440
      213.50786464
      -6704.80738726
      13423.54109088
      -2933.90671237
      3973.39227975
      1319.69752204
      -53.76304950
      3978.36598114
      4228.72430801
      3455.49032375
      7102.63489015
      -1576.21100679
      -1137.37879899
      7705.32819787
      3366.75165111
      6587.72961070
      2071.47326754
      8648.74003750
      7093.70030327
      4263.85572366
      6195.65834959
      9659.07308842
      4565.18649958
      1830.76356417
      1708.50769721
      5244.10452968
      4844.31718245
      3860.10730099
      3168.15487257
      4077.01476489
      795.58835038
      2356.09259293
      2681.76441288
      2489.78821708
      6628.42039770
      716.78366048
      4187.51726587
      2941.10388049
      -1539.41064700
      933.18025064
      3172.49633658
      5581.22822280
      2040.30478332
      2178.18478922
      2720.24731742
      1781.30115717
      -3380.97864103
      2142.17234837
      593.32791923
      12839.84601179
      7197.51644083
      3175.58321579
      10360.96218988
      1077.36038215
      209.33512639
      6136.18050202
      5919.45240384
      4493.01419471
      5982.02462541
      10854.96844088
      6468.73680281
      6258.47166119
      -821.68977882
      2436.54919686
      1906.11271642
      3313.47845753
      2239.10321749
      4972.61047196
      6744.06491911
      4825.06999646
      2037.47887092
      1439.80051665
      2317.14271407
      3502.00931532
      4123.62091126
      6734.83627957
      13213.19150952
      3233.92798721
      7699.84089032
      1873.55070401
      1280.76059110
      1318.84933825
      4158.84869508
      4721.79774650
      8163.66023022
      5969.84842777
      2420.13028544
      4363.12637974
      1763.57024804
      2310.04993055
      6329.99601284
      3992.06292547
      3354.63156527
      2074.21639227
      5995.38499789
      3725.26951974
      5767.66172897
      1465.24239423
      2293.46822564
      2230.89170431
      3273.04790590
      1634.35840983
      1149.50217677
      3958.57718687
      1209.27411882
      1363.89152363
      2025.73991600
      2946.80728695
      -207.25489235
      -1990.02026786
      3977.25528377
      610.38094266
      -1814.09858515
      1130.83160487
      486.98603546
      5376.96341687
      10489.39488764
      14199.07550351
      4148.32439139
      1463.80670981
      1593.73077415
      1349.36591736
      856.83089686
      2886.85967698
      4524.74391881
      2935.11202564
      4797.67559765
      379.59022738
      360.41267662
      24832.93727003
      9633.08689514
      1277.05793703
      -7395.91398883
      174.51338370
      9024.66665544
      -2551.53918085
      3604.62215538
      3498.44274456
      955.60588905
      4171.26430823
      491.25419399
      2492.59996016
      4156.88249497
      2439.80741439
      -354.38970466
      6538.54682773
      1672.01954059
      -1183.65885902
      7685.10175280
      5750.11508433
      6536.99799830
      3003.19163350
      1232.01471240
      3870.88644658
      5022.32904112
      1216.55008145
      2637.16819637
      336.42653775
      8671.28831502
      1209.95938000
      3707.74420913
      2121.52987656
      3159.07083204
      5014.05510658
      1762.27244154
      1209.23859303
      1242.94831198
      3012.51424817
      1448.44473951
      2585.93231628
      1366.33930834
      2055.59224621
      2314.38999571
      965.96502773
      2037.74469914
      -709.33003699
      60.77499367
      1134.66638646
      -128.95524528
      -138.89805349
      -85.19454764
      19506.69002975
      7677.82333639
      6618.20394201
      2993.54074527
      5481.71092488
      9458.78449868
      1945.28022043
      -745.09183487
      -2990.72139860
      -932.04860774
      2065.94877516
      1100.58082865
      -2241.98816484
      2812.26348948
      2261.90585207
      1811.59450142
      4471.32899434
      3584.76843107
      5723.41127838
      5202.34236689
      1929.38856947
      -1072.58559932
      7655.75314898
      2982.78536193
      -1125.34707312
      11538.11220890
      5164.69115606
      1451.32487863
      4804.71416608
      -2163.67320914
      -6195.50952219
      5657.24777947
      3089.75676940
      -2260.35695285
      2159.22334681
      2588.52614332
      3940.57363155
      1721.05695745
      -314.49382817
      1741.87253505
      -958.65924292
      482.32763698
      2251.74358215
      946.81246939
      -900.78364781
      1466.40710890
      4320.98980649
      3720.74636490
      3252.28794692
      2973.19555172
      -6.77954253
      -803.18110517
      2407.32017762
      903.88221347
      4001.34788116
      1038.80564782
      -17.20636987
      1359.96676840
      849.51771295
      1483.15040973
      -458.78758760
      6005.10670649
      -4409.01328449
      -2199.96331360
      -565.95944371
      1963.13372880
      2883.09029549
      -5238.59815107
      5523.47138596
      3953.93578490
      10459.18904496
      3792.45145876
      2018.44029429
      -1797.07046871
      2012.16782393
      -69.43117088
      5168.18538504
      3330.16814712
      4365.37150814
      2003.67800952
      2698.56511501
      4984.15266512
      887.62900398
      9379.16152021
      1040.96592458
      -3495.41045323
      5238.99398321
      3240.75032220
      -775.81832355
      5316.47188543
      3171.54167132
      1419.04396228
      3063.73524290
      -1978.74627844
      4756.04621606
      8542.46170035
      2953.18024673
      7407.32983321
      -8856.44747034
      -4363.69444739
      1828.59584181
      2788.47547312
      2940.78279048
      4383.18833777
      4701.61219051
      5585.90507977
      1500.42243943
      2358.46430255
      -4555.53225710
      804.55143450
      404.82495217
      1402.05514943
      1454.28468782
      -316.62131502
      1911.11635310
      4567.19466408
      1610.48165001
      514.72233851
      -428.88012890
      3464.53546064
      3865.14185785
      3025.04414141
      2400.80842551
      -114.95232911
      2693.27164299
      -120.02734662
      266.03191841
      2090.34381683
      -141.00377093
      -2166.30210479
      -911.60932566
      776.52523486
      -2219.86928307
      8745.03119691
      1195.47351350
      6540.49803632
      1996.34863839
      4856.26032086
      9056.04884343
      2618.07254864
      -8868.33082506
      1846.32195226
      -2339.98156205
      -1380.20461571
      3203.95266147
      6039.13046499
      4271.69391955
      7971.50028736
      -1276.07708556
      6116.63046902
      -13077.93792184
      2719.44948857
      2970.62842330
      -1224.43024738
      1210.09830968
      257.46665554
      1506.36141623
      3234.66915194
      -1290.46586921
      7213.18324176
      2658.53021172
      5898.82989040
      2403.61318300
      6754.65518480
      -2345.92187297
      -28.14282190
      361.98279386
      -1134.14413018
      3883.00315293
      7246.08884556
      5339.03338647
      -1295.46747133
      3938.85003878
      2838.95010174
      1206.94723347
      -3457.99566644
      -1693.54011376
      2980.37294782
      1992.37274682
      1937.75452761
      2263.75444297
      3092.28183516
      240.76555263
      1677.93136492
      839.80552164
      -438.82040857
      -874.07841200
      3323.39210783
      1110.90116374
      -1229.37366946
      765.92153059
      1418.92616483
      -484.56571760
      509.45217326
      102.06984373
      -2929.82962948
      492.02627497
      961.12923191
      -19965.59071168
      4449.61437615
      3851.42211125
      4981.79917813
      1668.95956934
      1407.30280670
      6259.36275921
      2620.59670534
      1926.59895225
      2430.67639407
      1004.96164329
      -10546.41209245
      -1188.04775584
      10185.49434579
      827.55457748
      952.55896663
      6603.16880194
      -967.53665932
      296.30677012
      297.46373331
      -125.81690528
      6038.44287438
      1157.13231681
      2258.08149358
      8507.51432342
      4024.95524205
      2131.75136432
      4473.65654984
      1259.62144349
      3291.00045998
      5777.39827657
      -1711.59265613
      -3175.03777038
      1473.28661252
      -3383.09000955
      -2179.93857694
      5570.36496437
      6589.32998639
      2021.20772738
      2287.30040880
      2267.73064383
      2315.16618309
      395.16142435
      4747.50245057
      -3340.47241742
      -15.37970934
      4022.15358659
      811.71205847
      1888.02024087
      1613.46593823
      39.46720938
      2908.42550654
      255.71073093
      1626.50775312
      1072.74050692
      763.42845161
      5085.44826234
      529.34322624
      -112.55757717
      719.03608021
      2204.00814237
      1260.35462436
      -2360.53771982
      -6.46584218
      705.43297543
      1566.70655067
      -21996.37663999
      -1797.99032924
      9382.63863308
      4871.81296683
      5273.01584678
      7192.63036021
      4810.71210856
      1236.46808880
      2808.66072929
      -2305.33285013
      510.24601755
      5735.08741048
      -7439.37029924
      13530.94191730
      -11507.20150887
      3952.85290225
      6649.37386297
      3177.38237675
      -1256.28151935
      9185.66109600
      5982.76957907
      11809.88245747
      5662.34396288
      761.52748125
      1951.15722258
      2596.76348352
      2727.01074528
      2973.33942608