<?xml version="1.0"?>
<VTKFile type= "UnstructuredGrid"  version= "0.1"  byte_order= "BigEndian">
<UnstructuredGrid>
<Piece NumberOfPoints="5123" NumberOfCells="5123">
<PointData Scalars="Pressure" Vectors="Velocity">
<DataArray type="Float32" Name="Pressures" format="ascii">
      306.19350083
      8573.70809963
      7756.79304096
      -35561.77368429
      -25076.91863939
      16956.62249469
      -20482.92742986
      11814.95133596
      6140.73899997
      -37979.07088609
      10437.44961755
      -24929.46055353
      12906.31950938
      5451.80238440
      -24289.64383439
      3337.97751251
      -28172.76905675
      6796.90420729
      3507.13730880
      -19896.22698744
      6424.35050284
      2906.14027931
      2437.61953862
      3522.60303377
      -3032.14910729
      1934.17937577
      -2602.08621012
      1439.63665875
      1064.57527080
      -4582.12509151
      1296.12801632
      -12668.68919930
      -6902.68836215
      -14196.00311950
      13624.87177699
      -3766.58890604
      -1679.21599233
      -1876.52279816
      -1871.30022204
      -4416.82742904
      -2645.34602673
      -6660.09695728
      5498.31008303
      -1075.14745922
      -2648.61298488
      -6692.12456241
      294.64679946
      1986.14144236
      -2165.96866623
      -1118.10624929
      -1056.95827375
      -874.01787998
      -1485.14729002
      -945.62195470
      -629.74106123
      -1145.47710571
      36.87704070
      767.15822961
      771.23551665
      881.05614563
      1067.80088755
      590.38020853
      900.92606690
      695.07089957
      -460.56266983
      988.42698885
      6450.98076739
      17198.08206530
      8850.93531018
      2544.95607947
      5417.76184735
      2553.01766497
      3924.11650633
      313.05725808
      3369.28331088
      3888.16658193
      2042.21185717
      2909.94276246
      1844.95512189
      2481.28428175
      2960.22650454
      663.57481505
      4568.60098369
      3163.32222485
      1394.15917161
      2560.58933051
      3063.09159940
      2701.15188344
      5012.37659000
      2717.78028662
      1056.38512052
      3043.64369480
      2636.15017022
      3266.59777690
      2696.71023894
      7793.49336319
      3442.89352767
      1844.62713022
      -5922.35653399
      858.69982529
      1568.81601566
      1371.46355790
      3981.37557686
      -300.57759387
      1197.33448911
      158.81837355
      100.37917529
      -3126.09540707
      3848.17929339
      -551.76527807
      -1880.32155457
      -360.01143816
      -2429.68800472
      1590.64894261
      -2022.77812955
      -369.29878023
      2725.46523954
      -3569.21778128
      -2815.29421341
      -3635.36706714
      1479.45524184
      4627.89116736
      -2577.12079596
      3401.45661339
      -929.98197708
      -1642.14900169
      -463.32776149
      -823.64122789
      -353.41353043
      -144.48182430
      384.16797444
      482.66789106
      7775.34601306
      10982.80949756
      3527.00859546
      -1067.03065703
      9787.28919796
      8160.32887565
      6414.00685752
      8017.19036928
      5977.82770691
      4667.72640697
      1484.98801052
      4679.91337291
      1938.17332748
      3078.96443742
      -407.93827350
      7950.54339845
      10581.47903104
      277.85037177
      612.91668238
      6633.75650006
      6374.51555072
      4760.38015181
      3590.01231084
      4868.80332903
      2538.52876546
      2859.07759612
      1482.46354673
      1589.92730172
      -419.30331908
      5259.56990531
      1744.46056856
      2299.64263541
      6123.29646942
      2641.48432781
      2796.04286894
      2646.63730392
      941.01276721
      995.52848671
      1257.88566176
      594.55552166
      4356.56390675
      426.71087634
      2379.35766899
      534.76232632
      4198.64702150
      -733.45780217
      10123.04069503
      61.20227244
      -8015.90996289
      -1568.89258696
      604.93219998
      4150.04682711
      -316.46369037
      1518.32419572
      -1390.85348089
      429.80501715
      924.39205683
      2338.09904703
      5293.06793850
      -4163.15093153
      7069.88981294
      -70.80291472
      627.05494624
      -2659.79452577
      -215.58760378
      2572.52623568
      8217.75183764
      9048.25528652
      9559.14266473
      1309.54415701
      6233.69059265
      7923.86576663
      5343.49070862
      3256.03054296
      2213.64651676
      964.50140948
      6027.55979669
      7959.84110321
      8226.69338793
      3808.05517505
      8487.62230571
      889.86361254
      6607.92266245
      8151.42898872
      5231.71034873
      4999.40477456
      1439.44005714
      4851.40943450
      8816.70018128
      1627.29539388
      4804.39429044
      2038.11741527
      2524.81754548
      1479.99770189
      264.59618278
      -135.76328694
      2342.27526242
      3713.44048973
      1020.73140525
      4445.92406928
      1730.39084954
      -2511.42687465
      3058.04416581
      2616.64174311
      -422.15310747
      5414.71976019
      3108.86312383
      4794.34918715
      2420.60172903
      -1570.65586161
      2881.71549125
      1256.78575323
      1920.28531290
      764.57875396
      1959.63721422
      2513.21726247
      5061.90929505
      -5884.81845615
      -1794.54823543
      1358.40887588
      2623.85079580
      3946.31719026
      2023.29636868
      846.14733651
      1784.33332891
      2924.63998050
      169.50718548
      1503.08742455
      2769.76709001
      -1840.32403671
      -2350.37373423
      493.04332095
      5490.36571300
      9936.38088384
      12652.89389127
      17172.00517411
      5886.58510106
      13050.93844543
      7193.99608228
      7612.52880865
      1652.30143670
      3022.78987181
      -2399.11299122
      4330.21086668
      1940.86987088
      6805.31641045
      11592.86490912
      6558.39520104
      5993.59819737
      5746.08400455
      6811.16016707
      3215.79693040
      7465.69008086
      1351.76429991
      1773.32041216
      3898.84636647
      6789.37441846
      10738.03401860
      5060.54921342
      5365.69950625
      3044.71404816
      4723.15813317
      3624.41471231
      2408.35380125
      3138.21995693
      5418.46939607
      9980.97220210
      4795.73775027
      12058.82916501
      7054.87799364
      122.36096495
      -1.21749515
      6307.13938160
      -4567.03296392
      3732.83764042
      -488.79548088
      5947.13179648
      4818.69390698
      7230.50508820
      4736.08609952
      3392.16977360
      -5558.56273299
      2571.73258696
      -444.54488548
      226.01429648
      -352.11425813
      -392.59558670
      3917.56732747
      3707.97294975
      1655.22707883
      939.68260195
      3405.98565848
      405.30831243
      2420.06632261
      3888.35007554
      3334.28633055
      -333.94714466
      793.28078217
      -17305.06999468
      6849.04202998
      9390.37594749
      8948.81467378
      14452.03961795
      -319.72691329
      10172.42277635
      12836.14473457
      9681.59614381
      6918.16532524
      14934.97302285
      -6083.52798543
      5611.42216754
      8361.21881464
      -242.72786622
      4632.82102293
      7494.37464421
      9392.68875662
      4483.79092970
      8099.44838271
      1814.69744228
      4769.76738298
      7016.08107134
      5812.35553780
      3190.15498399
      5845.86271271
      5397.91266907
      2910.83623506
      4988.13929126
      -1822.19429301
      5626.18384969
      2282.51672855
      2218.84839765
      6946.01186432
      4856.89801363
      3058.55853581
      1199.50797408
      4638.27762696
      6723.17239045
      -1754.42270459
      1784.85374094
      3631.12764552
      1680.16924985
      3189.26565814
      -597.47659328
      8496.11654969
      2825.95508912
      3388.86118099
      585.75550759
      -132.01685398
      7647.21198516
      -491.77905827
      5431.49107243
      705.98203560
      275.65048668
      270.02916168
      1287.90124559
      4832.46746873
      1978.28447296
      2566.11240369
      2350.18572759
      1478.83028189
      2258.08811525
      1930.47951464
      -1379.85840051
      1049.20999225
      -28807.02041058
      10290.51700253
      7785.71555472
      4754.66621504
      5182.26673149
      4254.40436304
      2189.65465450
      2125.66460526
      6441.96001435
      6476.10521145
      6270.98050378
      6176.75010055
      5214.48295897
      4458.46287138
      4414.58370635
      5238.44489645
      10474.54744007
      5372.47713675
      1801.34223045
      11242.89074132
      5544.87816139
      1208.63913424
      3716.57840275
      10087.73587883
      4912.80589348
      7112.69785178
      3849.64790774
      4392.74805646
      6705.89326326
      5847.31820154
      5598.94401983
      -1433.60164886
      8356.38738178
      3317.72389202
      1628.12138755
      2555.29544329
      7907.48698177
      5200.72634769
      8340.07665626
      -3156.71304065
      183.83637923
      4917.51512196
      4151.00816303
      6578.65706549
      5396.90349524
      4154.28689641
      -118.43943022
      2802.48048745
      1419.19709961
      1590.94349804
      2773.66710848
      1028.14985429
      82.80602903
      4133.26696702
      6152.02745348
      -33.82611460
      172.26327065
      640.83372221
      1520.22477087
      3074.73458321
      -597.93604365
      1853.48948197
      1355.42977404
      3072.50133118
      -111.84832930
      -1134.91105945
      16445.40874184
      13279.03990121
      3076.67117856
      1368.33892424
      2036.95864163
      2000.96162208
      8812.85476995
      7532.35991596
      8428.43045097
      5403.67956389
      11490.85547402
      11620.37334201
      600.86142891
      837.36667860
      4093.20666394
      -5719.87748210
      5763.73931254
      4096.82814547
      3402.70919011
      4762.61611086
      13224.95072213
      10358.50365775
      7785.83580615
      5373.91190483
      13895.23436223
      -8625.44015340
      1872.79460139
      7362.90310344
      9819.62974222
      3838.34583356
      -1000.02757115
      6537.60955194
      2885.95759664
      8106.19068934
      6055.49441616
      6522.62666470
      1519.28117642
      8239.92059974
      5536.55364838
      7963.33731856
      3386.67850209
      1134.70929022
      2481.66902255
      914.00796961
      6040.63681002
      4879.63284673
      3126.53833416
      2714.88232087
      5822.82438723
      4719.40382909
      1222.62782939
      1750.62819586
      5364.83374565
      2203.35868537
      4349.67981635
      2136.96972989
      2092.33310897
      1433.00882740
      2119.63305268
      600.52304028
      500.45180071
      335.66549568
      1158.09172490
      2584.34914612
      452.75867082
      120.96513182
      -18063.76538625
      2710.71440525
      2686.40199733
      10880.14938057
      12341.80745580
      3847.06354295
      9298.24363194
      11013.73340907
      14280.35577372
      6482.24045057
      7939.42047206
      8208.23237201
      5595.87066862
      4311.09543591
      7981.86378910
      3909.13367940
      -1268.59834480
      2906.67803049
      10303.58081733
      7629.40297643
      9156.28605195
      3958.33516083
      4675.79993301
      7743.52432543
      3560.43468289
      4175.78509727
      5130.14340836
      1902.50892978
      1974.40411791
      4594.77714295
      2644.28736422
      5559.05419713
      5191.38092320
      6562.70268130
      4464.31262551
      6940.82277790
      3673.70859672
      2740.98833714
      4451.71238656
      7040.76390172
      4482.63178504
      1096.16395718
      2157.00526849
      6184.86028799
      -1070.57876931
      3503.04113897
      2563.12770331
      3764.15879859
      2245.53264910
      4731.15697798
      -202.83165535
      2512.76234571
      4277.71617679
      421.80239239
      2797.44547367
      3369.43295654
      3572.28444340
      4458.13909177
      2562.36577674
      -894.10975558
      908.01019831
      -1572.88842797
      1639.85934015
      1475.10638200
      137.48831461
      -11.83251465
      -35532.71009678
      9916.07569164
      30812.79279948
      10132.48113937
      2554.69241499
      6583.65886093
      9936.07787115
      14726.58823124
      2485.07098399
      9923.85517270
      3216.07881763
      5408.91741821
      3095.43943908
      3496.93588008
      5056.15361424
      5417.87527548
      4911.80816330
      8286.29042517
      5699.34243903
      5192.17511054
      7025.72800301
      6263.30776063
      6216.16965829
      1697.72255285
      -578.07930236
      4474.99647922
      847.61626645
      6356.42453951
      5397.73810052
      4093.47437870
      1139.45346173
      6473.93543917
      9160.64444547
      4714.04635290
      3483.45082783
      6743.66320386
      3733.74008409
      5922.44264157
      1946.03183683
      1831.79440072
      5377.93519385
      4472.24128367
      -2495.55896887
      2537.73149307
      1519.85325983
      2369.10854858
      2106.60428056
      2588.58092935
      494.68702653
      698.19865783
      2005.07015003
      7846.32577758
      -2324.27498789
      1441.35634673
      4951.96289725
      3300.08551031
      3783.89335505
      2942.44685480
      2339.42098919
      655.66730856
      1966.22031298
      1965.09267234
      2512.49544280
      2288.90948467
      76.29416394
      -206.23918064
      -32327.05726218
      11253.40135185
      5587.73734051
      7444.67319006
      8640.06871261
      10737.71162838
      11998.54940545
      19748.07808095
      3607.12473427
      1473.56887689
      3728.80262391
      9607.79276233
      906.88662141
      2755.80731298
      6667.98321582
      7926.11544633
      9224.42560939
      8253.82895160
      -2943.05682082
      2074.18618624
      7314.67997881
      1423.12114402
      3753.07275959
      7245.88230750
      6296.60504488
      2653.67660249
      -59.57157601
      5512.02919132
      4634.44126881
      2742.63282504
      4485.49304833
      5107.63927594
      6872.84230516
      3656.82824011
      2295.06796888
      5739.06722336
      3936.44830732
      417.57436196
      5197.89701181
      4898.08288751
      2749.14758666
      3313.00085362
      1499.89250134
      6377.11754604
      -584.56689105
      1536.83552023
      4121.15354846
      460.48318074
      3729.85444325
      249.44677496
      4490.39638375
      1455.75155518
      4348.06162674
      566.51521379
      1232.83213749
      3061.32756469
      168.98410620
      1658.60464803
      2941.17087623
      -1899.90894427
      1234.84188406
      3960.26460343
      1254.41719636
      988.57883692
      -188.35158834
      -122.33247523
      10575.26112207
      4151.53486992
      -576.63409909
      5928.58817296
      1575.23931545
      9301.89416736
      4481.14025955
      4066.94069689
      9073.68376892
      776.24400096
      4856.16021126
      4550.98494858
      2759.47160093
      5593.68119833
      4720.63047451
      1663.44498338
      2851.99307021
      4362.25478302
      10898.49744074
      4399.96359543
      8831.76492622
      1959.06642533
      4273.74362997
      4206.93468236
      2476.89372731
      5751.05007051
      -818.49988188
      143.91634810
      2337.15655842
      1658.91102387
      1398.64038748
      7628.35774582
      -926.84114029
      575.65162280
      4944.82207713
      3909.42421145
      7416.11568573
      4231.28076796
      2857.99095749
      3467.83606179
      2601.02763398
      4340.19212593
      1399.90222790
      1644.05926059
      521.07324033
      3263.32764208
      4087.10315824
      3470.81119433
      315.24959500
      3066.09920881
      295.26918927
      492.78513692
      2135.05587354
      3397.57502659
      1289.89116688
      2915.73833541
      1082.88092643
      3040.35456475
      1743.31513066
      -31.40871087
      3475.89464849
      2221.67419218
      1798.18332693
      201.11881292
      577.19887940
      514.94609854
      10434.33501702
      10919.17384378
      3696.05652435
      9740.98926418
      9518.47592101
      4895.63077947
      2942.81785227
      12886.87702827
      2905.66950730
      2256.57950826
      6909.74806878
      2716.79433881
      10015.38469307
      -11.86254129
      2628.89826689
      2855.02704467
      2720.76162210
      3684.39854433
      60.88891152
      -1264.66797039
      1548.28858537
      938.49303318
      1257.84525249
      7203.79208857
      1454.60220011
      4414.73371118
      7936.00466242
      3187.37211316
      1363.37415487
      2387.66313134
      891.68286839
      3805.47953826
      6948.34940727
      1171.69125514
      3302.24147587
      6580.86633796
      3751.21404476
      4748.02418720
      2903.58819272
      -2588.51724654
      4074.60462654
      4191.11803866
      4700.39945995
      1161.25324933
      1680.50786213
      2057.22260102
      1344.19853033
      4915.05893787
      1949.83384977
      -266.74250341
      1084.82471571
      2824.49082606
      3679.07019696
      3080.10797076
      -550.10542952
      1860.12197709
      1951.82549859
      2241.01245259
      2316.80021187
      331.93146685
      1676.05885902
      2121.19885554
      -1027.27610382
      -164.04612164
      -138.09321459
      212.73219205
      10626.17675816
      4922.38272072
      6466.66100130
      3910.32209917
      3346.41223237
      3584.29380140
      5076.36955465
      -205.49661860
      325.96998065
      3608.57329235
      3667.99373449
      3231.72094960
      5200.90049145
      1473.94071694
      -27.28333888
      -1725.69867052
      -1509.45602236
      -1300.34541624
      -2857.19706519
      3507.24273264
      1511.20585369
      3605.45846322
      1904.60402432
      9814.98205392
      3764.26070749
      446.99988644
      3053.50562858
      4611.59654004
      2276.52335253
      2524.67190705
      1621.42890310
      4415.55671792
      3633.68772163
      903.26304173
      2944.03861026
      4937.19817724
      4491.32174186
      3105.77998268
      3401.65842662
      4679.24177371
      3168.40761954
      5302.47915003
      4779.07749552
      1317.42042378
      2747.03931152
      2152.07036067
      1329.45983528
      5143.15824006
      2479.88210051
      2410.26629469
      -345.33190165
      3385.69450234
      2072.74473319
      902.92767966
      -959.65827768
      1992.39654181
      2193.84697576
      3383.53334935
      2577.47395917
      1451.25352745
      2012.23611743
      3792.54237032
      1561.76928390
      838.38749066
      2135.03662881
      398.80803027
      10636.64552602
      22678.05878783
      5637.17833588
      4383.27250980
      1669.56698159
      2795.68850448
      5021.36878806
      9629.70135748
      8415.78937753
      2891.43058882
      -3467.50733646
      1292.49014103
      7964.08209419
      7167.42567944
      2572.11200099
      -1143.78323279
      -884.11004996
      4954.52054261
      15528.10177110
      105.75207912
      2134.99679465
      785.26049181
      2894.87858732
      -1735.16060996
      2671.23793231
      11141.43427651
      5528.98557547
      2001.10609313
      3703.68824977
      3001.72123483
      5520.98025706
      985.79822624
      2577.50460550
      861.42695045
      1058.07505776
      -195.10783142
      -1218.94948066
      1032.59311603
      3312.28442218
      3787.26800509
      2852.00270652
      4139.66677041
      4106.56565647
      3394.81301462
      14.52137387
      2510.47576335
      1627.23896734
      798.99972421
      1897.86025934
      2902.87041357
      1161.49765374
      1438.13264624
      340.27223785
      1617.55095378
      807.45302567
      2225.63849554
      1001.13404950
      3101.65542038
      1680.00685102
      659.34845004
      -768.20614349
      1784.81999788
      1072.29752042
      -2117.73980999
      2280.40552207
      658.22091949
      7179.57565492
      12726.75562162
      7856.86386463
      3336.58567036
      -1256.07943245
      1904.12075013
      5008.94326715
      3667.60521339
      4564.23406385
      4500.99382765
      2301.10197481
      7915.06042531
      4754.81294008
      6518.89677631
      2950.58565158
      -616.71645852
      -2399.44384119
      4349.08400611
      4234.81805497
      -370.86533414
      3251.98098743
      4015.60046101
      1363.33830525
      4470.02635726
      2990.09707906
      2769.03000237
      6788.50253485
      9055.21750361
      1697.32003712
      1572.22434835
      4715.07299502
      4517.91411430
      715.50622587
      -4984.20401572
      5392.50897968
      147.55377727
      1955.35428459
      5023.44846220
      2190.19548684
      2310.76453000
      2194.79956630
      5033.57530627
      549.08600621
      3502.75216799
      807.63350993
      -250.81733408
      -1165.55691421
      -245.76809010
      3924.93019032
      5006.32024954
      3635.99168381
      2022.21583816
      1536.38516683
      -219.61973018
      193.35783252
      -348.99345557
      232.79176652
      2355.95752577
      4666.71299098
      777.03920379
      1145.73113720
      4627.83825044
      -3785.73304292
      347.70309358
      -991.94150518
      518.06955695
      11666.14451611
      4305.30570539
      1579.83475208
      7422.98118577
      10582.18197324
      1975.36166759
      2181.36234102
      3511.90831669
      3195.06243742
      4032.64171144
      3270.10413174
      7226.01945458
      1494.34269041
      -5230.86072307
      -608.56437072
      -3594.33499604
      2909.60967380
      6389.18742642
      11089.27841285
      4967.79356974
      9317.98574452
      6361.46712290
      2625.42189788
      5771.89397482
      3587.31858882
      3505.69175501
      7864.08147221
      11439.30827751
      -1976.31194270
      9576.22347463
      -444.52324000
      4549.37898031
      5554.59320681
      36.74400453
      4473.92197764
      167.21615632
      -296.49501390
      2587.70458991
      9900.51929134
      4148.68884473
      2938.50666714
      3013.41157837
      1270.86016971
      4874.63678578
      2509.17770543
      3314.53325065
      602.26768557
      -1536.86059779
      730.08791134
      1749.46066381
      3761.92190473
      1586.57132710
      3838.34972332
      3424.58917967
      -444.02908212
      -136.44470195
      569.38874963
      1643.42050445
      1133.96780543
      -1554.51913895
      -3186.32914204
      3677.50232973
      -4804.23549829
      -1581.11326511
      -705.82496989
      1236.66320034
      9520.74503066
      11162.45653813
      9382.96667694
      8336.69836051
      -312.23758941
      3036.20069931
      1762.47697155
      5354.58877463
      3578.81722348
      -5013.71855023
      -1703.48638429
      11400.80206556
      -1599.74450487
      10550.09789512
      3046.48597199
      1203.77743188
      7500.88637467
      1779.86878357
      4059.18346371
      -15309.70494870
      1323.59886112
      5941.72942721
      4643.53447638
      -1274.03936668
      12252.86529019
      -1655.15425438
      4474.33205011
      4516.47351801
      4139.56536251
      3944.87803472
      4686.36249174
      3814.79440230
      -1692.06782405
      -227.90870763
      2241.67975203
      3740.33741394
      3181.63369696
      577.69215530
      3346.79805221
      5544.33819869
      3899.00850499
      4430.09123798
      2942.65365814
      2621.86130456
      1421.86339951
      2107.53581539
      -1967.31841111
      307.36121900
      8.15753705
      332.08702774
      3412.99632440
      2945.81328232
      438.76447488
      945.33662428
      -1114.98766012
      -894.78353851
      3501.88667314
      2207.13752875
      -700.38847038
      257.04176769
      1078.52957307
      2536.19151291
      -2480.47866173
      -1609.66633270
      -292.61061648
      3119.69350236
      17153.58758951
      8975.41074126
      15732.95301541
      3661.91070027
      3260.40981165
      6066.47958630
      -1700.26577206
      14065.19667880
      -2357.17433075
      3548.09044430
      1123.58191907
      1203.54085176
      3062.32436161
      792.61628457
      2876.26655914
      1533.13363526
      -2026.26626060
      6759.10442894
      3658.18640262
      115.35661114
      1571.96106579
      -780.74297319
      2531.78545312
      2741.85207299
      2570.14021087
      1747.91494558
      1243.76147513
      883.70685823
      1183.01740382
      4647.84843530
      2290.83506356
      865.64485278
      6426.33562279
      -928.73566361
      580.94692261
      -2963.30117651
      2869.52878722
      4470.36283105
      2536.19838202
      3537.03614357
      1712.88303996
      4911.02937841
      6142.15057524
      -1722.46028258
      738.88607384
      3224.32860033
      1831.26890049
      361.58991776
      -2005.11126045
      1852.25417571
      -7.76553605
      -1133.58423524
      2650.49091088
      256.14159679
      -565.49485193
      -1281.61590462
      -455.98070653
      2565.52793722
      1955.09519680
      450.07423256
      1952.51430229
      4047.55509004
      -2433.63255115
      344.63434423
      1976.84922723
      130.48333600
      9803.28626564
      2608.90727617
      2683.34999485
      1165.70705963
      2669.59024830
      4316.74464497
      6111.90400578
      3193.29936693
      1259.06365181
      8226.61928652
      3465.61362571
      -4813.20936462
      1497.35545624
      2087.66985102
      15725.23466146
      9390.05924216
      -1542.59262726
      -5918.43733787
      216.28698467
      -3500.56457562
      3198.97993295
      9945.62219883
      11282.83050954
      3692.19991039
      -3343.71583552
      1771.76551041
      4450.58580381
      2508.19067764
      401.20955326
      5028.27712883
      2476.94949884
      3970.02455367
      -499.74927160
      4495.37926473
      1428.86794743
      746.75747763
      5141.40441314
      1098.25980533
      4539.62676084
      4165.50419521
      5796.11595854
      6179.30585677
      1431.03416702
      -957.70181103
      903.26551548
      5020.59985342
      2046.05377803
      825.53024034
      -1939.69801599
      1325.62412404
      -312.65744489
      1655.59722560
      1193.98917216
      -319.43270621
      962.22610620
      2274.67038409
      2202.96084478
      609.64358856
      764.16614764
      81.83933178
      -294.20441346
      3179.82742779
      -745.30703650
      -67.27936524
      490.80508042
      1175.68840845
      25177.94317987
      7530.14894273
      1837.55758971
      4164.67440915
      3443.77984497
      7028.77700033
      1603.48174974
      6294.15658842
      969.12140909
      334.24710943
      4966.99900216
      510.81976843
      6225.96594555
      8047.02646004
      1835.64286227
      -3709.59249511
      9245.95801076
      11333.14945893
      515.50747691
      5075.98457268
      -17264.60639133
      -212.56612503
      6387.59610767
      7414.10137465
      -1405.82541799
      4574.09031467
      3306.11307495
      -6678.45747196
      7092.26920817
      3007.56116531
      -429.39979571
      6626.03524486
      2829.39331628
      2865.94935340
      -105.12780795
      4532.34116301
      -354.94088446
      3938.31353913
      488.06335961
      1670.39028435
      2019.55014724
      908.85713285
      2418.07317332
      -788.67833213
      3635.40019062
      3821.39342734
      6284.91420565
      946.19687698
      1387.36072846
      82.85071680
      2344.44828978
      1107.29911935
      2146.78347970
      3510.91961612
      1655.77319525
      2341.16448395
      -1362.87087760
      -582.86738043
      -586.89994760
      -864.46460084
      3444.12305900
      -1014.82009218
      896.70220654
      -142.45898827
      151.41024948
      1037.41934056
      -19965.59071168
      7811.80234204
      5436.33642832
      7370.40747338
      276.78520677
      1842.08244911
      7510.19278519
      656.74116664
      -844.89802999
      605.13660074
      5172.58429540
      -3979.31848047
      1793.20222001
      7560.75603754
      -3840.28786248
      5376.35066666
      5625.45766786
      3428.27707699
      5842.45938772
      4426.53711496
      11380.22066538
      5398.60548772
      7034.99620774
      1492.69451636
      11639.13168841
      7281.51049342
      3086.31712701
      -1699.00954635
      -174.62665053
      2521.09495764
      5980.95284347
      6704.58075431
      -3846.84164222
      5259.75249508
      4865.84984809
      6252.03868144
      2697.99547998
      749.91585926
      -1861.71001372
      1374.76063685
      1585.84130937
      -1512.09200578
      2779.89414532
      -545.62266636
      909.33984715
      4461.76416622
      -183.92418761
      -359.55684131
      -1374.97144165
      181.85847558
      319.26360370
      2595.41586947
      1472.05513389
      911.55127858
      2804.68904932
      1222.63140033
      -396.25317614
      -1164.16439447
      2375.55404400
      1329.30130940
      191.00399425
      -149.18921189
      -679.21731571
      -704.52879948
      -511.61531561
      -705.82126027
      -20679.69231914
      4816.86126497
      9333.01251204
      3834.91997036
      -438.24254858
      4783.51286501
      5725.98831284
      5580.47639735
      2112.01925135
      10740.96929003
      1057.10205137
      8532.70355449
      628.88651765
      2515.55651902
      -898.91176026
      7528.20781038
      8443.17443073
      20644.30351436
      15467.19237717
      6969.08845266
      9446.65297324
      11452.60307924
      2302.78109068
      12552.48546465
      2350.30778671
      2528.47566146
      4349.16697656
      4376.70695710
      2236.53341165
      -3047.56597961
      776.64565760