<?xml version="1.0"?>
<VTKFile type= "UnstructuredGrid"  version= "0.1"  byte_order= "BigEndian">
<UnstructuredGrid>
<Piece NumberOfPoints="5123" NumberOfCells="5123">
<PointData Scalars="Pressure" Vectors="Velocity">
<DataArray type="Float32" Name="Pressures" format="ascii">
      1423.91596627
      -31046.34871990
      -41477.35926604
      -35561.77368429
      -25076.91863939
      -19582.86721092
      -20482.92742986
      35867.61544542
      30095.47617993
      -37979.07088609
      -9639.07792784
      -24929.46055353
      -23499.87098315
      8289.39128600
      -24289.64383439
      10540.72362216
      -28172.76905675
      26530.47606824
      12740.62199999
      -19896.22698744
      -14541.22315553
      17762.09578014
      -18719.36256018
      23653.77082590
      -12336.29749353
      6121.14501175
      12625.43770554
      -15118.59182753
      25848.46018802
      10205.29228431
      17124.36794530
      -16601.62400318
      19906.55115961
      10113.14204977
      10694.34094187
      5719.86863059
      5576.34497573
      8504.74664772
      4700.01614645
      4653.19127460
      1929.99711873
      1781.97381905
      -664.22055999
      2657.71755826
      6385.50552892
      4974.42666278
      1892.49074363
      -505.78566311
      9578.55570820
      -4866.75679010
      -391.71182891
      6717.15192812
      1476.57556822
      -1965.75108722
      1487.80900157
      -128.21881733
      -2364.35914426
      -669.95581326
      299.93995715
      -414.90800687
      707.66083656
      1667.77354758
      -228.76469174
      -1353.27954930
      1653.22848925
      1375.83826788
      6506.04253864
      24969.78802695
      14993.97474747
      6071.50894189
      6542.86035904
      17019.63924404
      9138.88299883
      20328.93086603
      13792.69817868
      11679.24977235
      8063.44462241
      9621.59659098
      11518.30210232
      3127.59154484
      7565.87269097
      2509.96108103
      -1556.83251285
      5146.53713416
      15240.83492935
      16048.39042651
      15299.62638557
      6882.19465003
      11813.45286350
      11255.09980741
      491.14626148
      5537.87883067
      13800.98881639
      11526.50267709
      11291.54649577
      5585.30715128
      8592.45197485
      4235.26021199
      193.89220766
      3322.65843256
      6951.82729812
      5105.08727721
      7712.97021681
      -4297.34644442
      5782.76592639
      6166.82671103
      9282.89265005
      -2941.68863192
      8350.13184156
      11198.52603858
      -1624.24172125
      1154.18161561
      12979.91263754
      1179.53903910
      5535.99989632
      -254.32295408
      -708.04631723
      2146.62909186
      5375.20932796
      -257.23631000
      4299.88839206
      -264.37462065
      12763.99980443
      4903.78947142
      4417.95706788
      1474.93865246
      2462.31644241
      2369.37360037
      -1211.31547512
      -108.15169440
      1423.34469167
      -285.91578469
      6270.46954445
      13487.50428312
      32743.38524151
      8344.58521833
      13700.91152352
      16577.81473747
      18689.37502039
      10690.51483177
      5091.21944132
      12640.81671417
      15706.82654724
      8814.91365238
      17003.71958413
      11178.38108123
      27482.99995729
      20593.22434722
      12427.60543076
      8618.48809483
      4719.23305253
      8783.11909354
      7556.17500181
      13234.85235222
      13163.71939047
      8033.56974025
      12405.04214235
      16880.45030687
      6827.76367182
      4782.29087416
      9079.62279860
      11269.35342654
      14380.71766397
      9181.73660657
      14215.26097282
      9270.04672952
      8534.99076043
      10413.70052566
      4452.33189418
      4948.01573362
      13495.83030577
      5340.20172877
      5285.90892195
      9936.37720774
      8423.31118781
      2965.17883295
      1597.35385390
      5464.75497691
      12387.67266611
      6182.89865079
      3803.79614104
      1096.43617671
      4915.35589125
      9445.31210468
      1532.36817246
      3456.08184755
      4731.97751279
      6231.18055609
      6011.87022490
      3091.60778891
      2135.31117532
      5205.84662745
      2251.01567163
      3303.65536066
      4510.25165067
      -221.37394526
      -2770.69030285
      -1259.80236740
      -537.92267593
      15205.57091860
      20249.47105846
      32865.14053393
      11771.79847961
      14989.68271478
      13366.58491121
      13296.11811836
      14734.14992164
      10147.67877817
      18978.38160948
      33747.02153652
      10917.64170554
      21314.04890839
      11122.06805347
      3413.82068513
      26459.70677779
      16727.71055891
      14595.80619149
      13504.49042384
      9726.44306765
      14730.91180320
      13779.93095304
      20166.51628768
      17303.99947754
      16266.33174571
      5996.86875212
      8133.47975592
      9641.22818675
      16666.43909802
      2945.38174322
      8421.60120032
      6995.32604114
      12252.06903920
      11014.22579024
      6305.24655317
      14464.64832490
      7003.15200926
      8820.16522439
      6493.68365141
      11088.27553186
      13251.29915929
      6560.56686918
      13609.52672373
      9173.41073898
      5935.16341126
      8069.78294600
      3709.14164143
      5286.59235098
      3159.17699044
      6291.18719602
      8205.44553907
      3782.31469099
      5267.02131813
      3312.16724015
      6589.76121728
      3872.36339781
      2618.80967595
      3735.80908148
      4188.40669358
      8298.61975970
      6021.07313410
      4414.97263066
      1194.85225319
      3011.64782769
      -1461.96635348
      9045.84599820
      19575.36644922
      43087.80861715
      39930.82324484
      13267.24693211
      15091.57720239
      32173.14414099
      41669.59165768
      9916.91959308
      29241.08314096
      5891.31152810
      13969.64995100
      13020.55596959
      22243.74729651
      15868.63502372
      14386.22058929
      10633.05071207
      5166.35944819
      4620.73478062
      26058.54768961
      11468.94544199
      9846.85581351
      8422.18238748
      7755.97313194
      13317.38434269
      19964.83872778
      23076.40089418
      3888.31440881
      9550.62613750
      13028.58293847
      12275.06497837
      6419.18905127
      8402.45149952
      9684.19287664
      7465.20676610
      11920.65371367
      19600.56282298
      10065.39994026
      9517.99441052
      4683.65373004
      9538.35511898
      8710.39000578
      5585.33949016
      9234.37374075
      15449.22244549
      10466.16251518
      7276.76425884
      4927.87446621
      6978.18998587
      9506.09831062
      6417.31545388
      1857.52243102
      7027.84494447
      4709.32916157
      4081.39331190
      4655.19907094
      5342.28125798
      3667.51050654
      3589.06232505
      3309.05508671
      694.61594678
      2527.92904340
      2108.59453506
      -1325.91685595
      -1011.49947069
      -697.90570104
      -17305.06999468
      9850.40129550
      9994.00135938
      12268.24325673
      24952.44977205
      3977.23383102
      2062.53128096
      17261.90024136
      20440.08570792
      26474.97112821
      18125.50001479
      9165.88670731
      10109.75930874
      7456.20237299
      5699.37853110
      17508.75538392
      17514.93159184
      4408.43217003
      11977.39828506
      12959.44928632
      15170.94764088
      13469.97352692
      13822.38950116
      13511.49943532
      3463.99354475
      7806.70153634
      16258.81015291
      14036.75550952
      12457.31797973
      7815.57909027
      16323.92168535
      9614.11262768
      10401.78563550
      13691.67785918
      8846.48851003
      5517.65410676
      6086.83156474
      19870.48701222
      8677.75835636
      13152.49235378
      7422.80165794
      9151.94289566
      9798.69904821
      5943.59386045
      5399.56148890
      16996.08338275
      8430.93571101
      6873.56825827
      8455.38023333
      7766.44213269
      9592.68450529
      8108.84928793
      7265.60407757
      9583.08569900
      4619.56679593
      263.16093864
      2816.94148235
      5554.76372906
      5153.77732430
      2799.99342218
      2814.12840432
      1518.72229241
      -330.22771751
      906.32043158
      -683.28016563
      -332.95206988
      -28807.02041058
      13802.39394654
      18131.46244112
      21900.00360060
      28350.09881773
      14220.24612110
      2325.06752974
      2930.68453270
      4228.92171927
      8327.73275351
      17579.98467155
      9736.22145836
      13829.26454221
      10130.15646580
      19507.87249243
      14258.97738987
      18075.97160669
      9442.67445459
      9900.95151491
      19947.05135937
      9997.59647257
      15816.72561017
      12919.97468195
      14031.70403234
      -1707.50576332
      11124.31239908
      18324.28696127
      10521.48956290
      9860.49833454
      14014.11481508
      8693.26820188
      8348.09020441
      8234.63596816
      8056.88528480
      15208.39615620
      12403.10460792
      9252.92302099
      10988.19281610
      13160.51861651
      12438.68809478
      9404.90245534
      7575.37067089
      10999.46387596
      12394.18422655
      10070.10692129
      7531.78138376
      8299.19343880
      8644.23775067
      9620.45805057
      7934.73115263
      9194.42258875
      11290.58235020
      4430.57617993
      5758.53324479
      5733.27607511
      2901.87891901
      1773.36270153
      4746.51079260
      5354.02148843
      946.38396358
      1524.92627731
      2480.52841815
      730.59555436
      1735.99052359
      3001.16694809
      1201.03867882
      9202.83469105
      16431.51833392
      23825.65497719
      4675.52867576
      820.21604172
      1247.94338347
      3275.74878166
      13226.74544845
      20907.27106164
      14479.36135022
      15368.56044451
      10056.80365268
      9192.96667013
      7022.00183323
      6709.36722728
      13746.17112654
      31029.05271331
      19239.63165149
      21683.23801448
      18191.64287645
      10795.17525598
      6231.69988596
      15285.66013985
      10093.89613492
      13606.85635055
      2239.45760233
      4994.78070523
      9674.39355406
      14483.78911772
      19494.94501126
      15799.59014108
      5714.27256265
      694.38891958
      7823.67923087
      15179.30213483
      7467.67232404
      7603.83663689
      8687.92538212
      13268.95091745
      11418.85696851
      9313.24537841
      10877.61132975
      8602.36978713
      8726.21927450
      8445.97603490
      3902.46722343
      9912.23253872
      10468.28173046
      9785.68578987
      7314.61043135
      8271.43097526
      9704.49281665
      6307.54995679
      5991.58875034
      7812.72049422
      7298.34772600
      6310.64834399
      2966.94245362
      5991.34066632
      1116.29093250
      1720.23884695
      1033.37031832
      1990.62349505
      1669.36858907
      -1964.14077435
      1218.20846400
      -18063.76538625
      25300.68754357
      13963.04312939
      21265.53711732
      16281.31824038
      16045.50618491
      17096.32743125
      25585.61352127
      20415.56616319
      15156.58209369
      13630.64628441
      15561.92397747
      18858.04210383
      16467.25820255
      16395.64142277
      16022.54913314
      9991.63849559
      15627.32002076
      30099.26003838
      14686.71066389
      3598.79698973
      6048.40912262
      9061.12742145
      13344.09550318
      18140.55402693
      4470.24862208
      6423.81458070
      12568.47777376
      8653.81834612
      12712.00919698
      11494.86191744
      8019.28267065
      7918.79017774
      10214.08187914
      11859.44581123
      16703.32163701
      8707.92122973
      6256.92243238
      6104.92420450
      13397.36729766
      12389.47595168
      11407.93671718
      10973.45587695
      6830.62236695
      10681.05682207
      9988.03122113
      6202.00349514
      6481.85725037
      16993.69674805
      10730.91376242
      4741.14888460
      9064.14756880
      10622.76059780
      5893.14297124
      5343.87256574
      5154.32872618
      6661.84302818
      4159.00417454
      4749.65953351
      3579.12490489
      981.99620539
      3158.79136139
      1853.58629307
      1250.01902933
      518.15485759
      949.79189120
      -35532.71009678
      -14191.21669992
      20166.67012904
      17486.21163833
      14736.07742287
      15706.26358391
      10868.99723897
      25355.57843968
      21478.63905034
      16284.81797264
      13101.81631029
      23963.00592943
      15434.26634518
      1941.51672440
      17837.27211129
      15472.93929975
      34041.70449187
      9536.64257160
      8238.11142395
      16857.26868543
      13733.12073354
      13240.19710078
      18913.74234089
      15118.13509766
      12866.85580999
      13803.51615560
      15527.66457609
      6455.84626365
      3438.69048813
      10137.70017510
      18756.20499159
      17512.94887881
      7793.53491233
      4566.69690901
      7848.73780819
      10957.36300246
      17049.35397453
      8395.44053401
      13659.14581320
      11247.65586433
      15345.87396585
      9569.48088368
      10351.81836451
      9859.74593587
      9106.14339729
      9441.72686445
      5238.92115755
      7867.51776723
      8745.54048723
      8696.08924682
      4754.31762845
      8392.89077627
      10746.82747002
      5813.38735949
      5377.48634792
      9035.51273274
      4573.63626264
      2502.14209160
      3928.21169058
      3839.54819600
      2614.31288896
      4068.17682474
      3911.81634839
      2836.38123379
      551.35412842
      1131.36122694
      -32327.05726218
      31678.66795321
      7593.39902268
      12252.75256187
      20812.43703959
      7020.66691470
      18437.98851708
      18155.76518015
      6767.60456894
      17134.29810927
      8449.25524845
      31286.43668385
      -6375.02090956
      -6616.66942317
      1185.98641366
      23752.38188795
      22385.49449335
      7072.88052314
      28354.57897321
      10720.54052016
      19614.30219401
      13486.86238713
      3400.53473553
      19608.44973500
      21765.80077140
      19663.51616667
      19902.23232438
      10200.52164725
      5986.98288611
      12053.70870754
      14195.42461688
      7969.43382488
      9922.58702127
      7938.51183190
      7848.30209659
      8194.34303021
      5773.41437419
      15319.41662011
      11751.17346341
      9336.41904442
      11794.12044567
      13256.79366854
      5639.85820079
      7375.71170885
      8898.68064267
      11636.61023028
      8561.06216895
      9157.23094342
      9990.77882188
      12143.69441474
      7646.38280711
      5138.30574166
      9647.05232814
      9213.29124938
      2134.63181156
      3281.86739946
      5230.40338355
      1390.72496890
      4170.03183353
      5538.59868205
      2290.87502242
      1336.35721128
      -1204.26865877
      329.02942306
      6.73267738
      236.21997355
      27838.22346389
      18595.92723879
      19049.83218154
      11198.25046852
      13690.20461878
      14791.66401054
      42079.45769449
      34903.09281933
      15376.42707001
      13886.90738563
      6751.56838772
      11716.00672037
      22430.36621219
      10365.19405112
      -1671.51039395
      15381.71163708
      16537.85240334
      13306.93031734
      8913.78331351
      8856.10153079
      20095.95452107
      -2199.54119994
      5481.98973351
      11263.15761094
      13034.34159595
      12329.61707508
      13890.17833315
      6857.86093883
      21385.83066119
      14460.01846249
      19181.01591394
      18206.42552754
      17281.02785226
      7492.13270250
      5410.17137380
      7407.49948714
      7649.75231201
      7565.90135904
      2265.78558308
      11784.81576823
      7771.51054734
      9081.91558097
      8649.70097055
      8069.98238753
      5545.18694695
      6106.63142379
      7089.37807396
      9037.88597795
      10065.95517014
      10212.73909892
      8987.29984854
      2451.63477106
      2668.11274274
      9438.01531296
      6844.07024975
      6781.38203085
      7084.81447077
      4386.57344383
      3653.80165634
      2773.77305851
      1461.11734175
      2532.71421791
      -646.74939286
      723.31214971
      -1686.50004547
      2343.39199302
      12928.76263191
      29180.08083289
      5464.82184203
      21592.16077901
      21508.94630134
      14472.31681929
      26964.69635662
      24045.85662785
      12943.12921605
      12201.65949454
      14417.11095184
      15928.18133622
      15058.02606966
      14692.07707498
      17096.70584503
      6819.15303539
      11106.54608799
      4081.75003253
      13036.00391047
      7338.53083932
      14398.98445124
      17168.79540337
      6251.41999761
      9113.83313197
      8437.25698476
      5506.86550866
      15485.87498443
      20603.19469404
      12978.23657960
      6881.13161844
      8221.57547518
      13456.15957853
      21283.67051121
      9291.53542674
      5374.01983751
      6764.75917411
      12311.02332208
      17752.12715873
      12900.46029564
      5129.45810952
      6357.71235536
      14474.90283978
      10507.36852773
      8301.97655622
      7966.03638597
      11403.56413015
      4891.31605334
      7013.76850678
      9438.47112091
      8993.26071205
      11104.59144263
      5083.42331870
      5163.53103908
      4430.45130459
      4859.65450501
      4598.44449686
      4478.08285716
      4676.44696221
      3653.53006378
      4503.38760594
      2476.26137121
      -217.59216006
      -49.37544410
      425.01275076
      -279.55376998
      480.20678760
      -19907.26991627
      26194.02482664
      20505.50204407
      17524.59841878
      29290.96716316
      21698.44297951
      13603.95105417
      16125.36441693
      12649.28078157
      12499.46771861
      15612.25858088
      26284.63512092
      14842.12860728
      13145.66059795
      5595.10881816
      17224.93926651
      15332.14970757
      18870.05400561
      18866.78876079
      20833.36257812
      10253.86247465
      9169.11970624
      13057.76253390
      10970.57188060
      21785.01773544
      27815.63426267
      14554.06242785
      22091.30279291
      10940.24814365
      4958.62245523
      11260.11667739
      9605.17299553
      13506.41917470
      13500.34436812
      9367.10485159
      12210.51059602
      11235.83920197
      14626.63057778
      12798.85810572
      3798.81985460
      12979.82814921
      9566.47161451
      9478.45255131
      7861.11111924
      5908.79644462
      11794.25374207
      6715.61758297
      8335.64304802
      6539.52612025
      8922.10840427
      9399.91307381
      5629.01910682
      5531.23890570
      11864.91939994
      7169.62602064
      2598.22156613
      1808.92411731
      2762.16831506
      473.95065258
      1941.64666720
      2648.15496084
      -442.99005228
      1521.49241778
      1231.27849863
      601.35329345
      -222.33203444
      14126.87931997
      24971.87263194
      5806.92524679
      25843.03482135
      12266.75932384
      28736.01740499
      13322.28450863
      28851.47250948
      11479.66666899
      15699.81338976
      14403.65642050
      13934.13896037
      5993.02713104
      16169.32452323
      8742.61572536
      18445.94191395
      8478.80737099
      20619.13644904
      15224.38802124
      13267.53189473
      11629.60296661
      11310.74085453
      6629.94257469
      10354.69015356
      10005.11137350
      11386.10274023
      6045.86533728
      18233.55076485
      26076.76501285
      13053.26940352
      14842.24797738
      13889.36656267
      14780.60656995
      12602.20671780
      11121.02906579
      11026.67910937
      11641.51152917
      14576.89508097
      14597.03162393
      6778.94632580
      9389.84148824
      10723.28592986
      12436.83752463
      9372.48965615
      5854.71989602
      9071.10419096
      8006.70007917
      3266.25205170
      6415.21208378
      6375.51371952
      9816.14064791
      10039.30489994
      1327.05952743
      10533.77338914
      7218.95773884
      1762.86585386
      3202.50834164
      5852.27786029
      3629.98622105
      3181.63581062
      2155.60251238
      2261.60515556
      789.49728926
      -713.56378589
      309.73280696
      748.40316578
      -25701.19584954
      11670.55600608
      11191.98744936
      26077.09247786
      12323.47491134
      20021.36397057
      27657.17456099
      4809.72651405
      8576.85004207
      12626.47261282
      11019.62624240
      17026.77216718
      19233.03954858
      13951.31898066
      10319.46409345
      11860.12506724
      14053.26489409
      14313.56371753
      13454.45850538
      4965.67599654
      17524.31353886
      13281.83866818
      12594.70994216
      6711.07105820
      -221.60000381
      11882.93999176
      14840.31767532
      16106.03227768
      7857.79877764
      8848.44550184
      16377.38292857
      7376.87591685
      13865.88473085
      10310.01129894
      11400.54386692
      19069.27922568
      11312.84174655
      8368.06795907
      14221.63116598
      11986.75258793
      10575.51341092
      3262.28661313
      13191.27544408
      19455.08511815
      6810.19606475
      3260.58980244
      5840.02629393
      3721.31757681
      7042.86247776
      5978.39264160
      4187.66494580
      10013.79488921
      1667.60556258
      2545.16328147
      9613.12189302
      5182.26928281
      1197.36894821
      3689.80374246
      4202.88626832
      1787.02624915
      1710.48808791
      2560.30571712
      2012.06336375
      1071.11137776
      651.38128654
      383.52680119
      13221.32178864
      9035.00066158
      15339.63448809
      5972.69307825
      32115.28312896
      25818.88371922
      9801.02632054
      21057.26918426
      19018.68287566
      5268.73473581
      16990.51287275
      12531.16611070
      20189.22494432
      22727.67295127
      10831.56476979
      14381.58185542
      5707.73222119
      11091.78786691
      17246.86285813
      16924.74037982
      13247.67044666
      18293.04307062
      20301.53642697
      7117.79285720
      6343.23488547
      17363.22146126
      18247.53744581
      15143.33700255
      30278.71513840
      13861.43572601
      13502.72552361
      10959.23188290
      10341.64125414
      10293.13536488
      15374.56636896
      7556.92107454
      4758.44865708
      14134.84121949
      9976.73319395
      14476.96355559
      9271.07796740
      3470.28116323
      2866.19176338
      10966.81872708
      5404.20582079
      7006.95437972
      4411.65773478
      6207.42854969
      6596.47342600
      4093.93802154
      8082.62861134
      9574.00881223
      4012.72670422
      3359.36438647
      6001.05397615
      201.81547532
      5809.41871404
      5154.72089655
      2342.87143248
      2813.56148489
      148.47867084
      2672.12136249
      1599.08049113
      746.47948576
      1536.72302538
      1047.81525378
      19888.93976552
      7559.80404710
      12410.93534790
      31725.61645975
      14184.79546323
      16786.22973224
      17537.93130060
      14420.59011013
      19466.35119933
      24022.60489639
      11999.50551299
      2905.67796181
      16018.02628490
      31731.22332495
      4662.84963822
      14257.73422458
      5422.74192632
      15049.11054592
      23503.55100895
      16671.42831077
      24705.82365920
      4553.56557430
      8124.22587109
      5845.45872382
      2382.74095215
      22570.97034268
      17937.52489257
      12664.20180315
      11515.30245927
      20270.25591040
      18939.09206502
      5692.05905582
      14736.74000648
      17721.70759433
      19200.82986982
      11385.62858600
      1688.28886031
      12807.58943458
      11172.19643518
      14822.64556178
      10652.05757079
      5440.11812844
      11977.80731830
      12973.59149623
      10189.51225874
      2937.48036742
      7080.79546936
      4983.88003895
      4120.83512542
      6387.00270516
      5149.80414495
      7671.65257812
      9240.50006903
      4562.27387882
      2439.54965797
      8033.59592044
      2503.22380693
      2819.15597474
      5044.82732698
      584.91993837
      633.81595289
      3299.20925146
      2331.16493476
      2306.28036290
      -1073.69514450
      -1179.52847219
      -15937.55521115
      22743.38622675
      -7598.28555719
      24921.68555530
      5124.45685492
      8224.75476616
      10324.14611311
      17587.57640758
      3862.16035626
      2515.52362009
      19161.18339871
      16283.20835959
      18316.51520395
      14566.13921227
      9840.16447502
      16261.82540039
      7933.80850204
      5576.37756266
      4659.52271362
      9460.53406163
      9539.98177758
      19107.17400269
      2381.27146399
      19230.23738464
      19445.68298935
      11651.21614212
      5095.62361228
      14126.63149731
      16751.88918089
      9851.32450346
      10626.38208142
      9555.62676603
      9729.32313347
      14001.39060360
      11501.78444865
      13266.73295307
      5416.36735582
      8729.34447023
      13269.19676282
      5433.60328528
      12189.27531090
      15220.74129544
      2213.77555180
      10369.30319993
      10323.74062550
      8677.37176132
      5993.71507139
      6268.64041841
      7889.85349946
      4449.41739255
      5671.71038934
      6319.70822530
      7057.75202288
      8592.02447950
      4291.80362139
      2952.07297374
      5104.64663440
      3311.71795561
      5193.95058869
      1285.87960943
      -220.64174123
      79.10081618
      1577.79013537
      -4092.50025448
      -903.82894983
      -2576.46050040
      14349.13308982
      7426.32577048
      11802.24182291
      9805.74777335
      4345.78592464
      19687.17607786
      16908.73658625
      27117.04144140
      24028.57091448
      4888.61863406
      17288.17654282
      122.57250923
      13144.80004325
      16056.35171924
      657.13146384
      20574.89061474
      6581.60174960
      5320.23727723
      5178.74646043
      4910.83438502
      5390.30334180
      11488.55699130
      10379.27286176
      1262.29472766
      13085.25487602
      18393.38725538
      6869.28792219
      5366.02956997
      12579.17443602
      11213.73607245
      14687.21991408
      13684.31248885
      5018.58599534
      7158.22014782
      12308.78382938
      12213.32717224
      11437.45305632
      15248.67492015
      13736.31266475
      9845.86701833
      14256.17488371
      14076.87444469
      6977.07498495
      11629.86587880
      13140.15343896
      8631.31911992
      4820.25516846
      4519.32880062
      5457.37853382
      9421.50175813
      7721.60184645
      4833.67974519
      6446.66167924
      9338.27166848
      2203.86980617
      6626.04855697
      6363.01194403
      2225.35463985
      440.76409637
      2876.83024641
      1161.84214040
      1300.19217724
      -1327.97153304
      4404.82382791
      -2954.99009001
      -491.50529005
      1411.20938655
      19464.93991580
      9322.13020180
      12669.66968125
      309.29156493
      -5317.91151058
      6473.41099524
      1048.95915407
      15692.17484608
      10880.11631502
      23231.81699708
      1551.09220524
      7345.80005566
      5331.84150704
      9428.29906074
      7723.06257383
      340.99916923
      8424.95733826
      15900.20704770
      13989.95479516
      2427.52736855
      2669.51919350
      6764.91800744
      3934.58640302
      8906.26296306
      9574.71923777
      11501.12026223
      7527.79621416
      11528.47484733
      14677.90091408
      18599.64760826
      18160.16709842
      21523.35411408
      2894.18451415
      12436.94695676
      8843.39333525
      10334.44909526
      10159.91975194
      4808.26966698
      5621.25216868
      9775.49135859
      10746.21762018
      15061.31082233
      13031.47657400
      5157.29099698
      3531.17766900
      7681.41971901
      4140.10242892
      6972.55467147
      8477.76405737
      1691.17728253
      5075.87065567
      6196.57824849
      9803.19243681
      5458.36888307
      5130.96598705
      6617.01992884
      5969.81995846
      1643.90170468
      2961.66019209
      -1015.98184425
      258.99899217
      -1028.07373634
      -243.94306892
      -3145.76129669
      723.16794639
      -19965.59071168
      28499.85838896
      -10727.12141966
      2444.28438904
      14508.15458690
      -8406.83055109
      8895.42633712
      24435.28507134
      6628.20410699
      12320.99874441
      5384.71996935
      -3781.13675333
      20073.73271862
      9705.14452199
      377.34703049
      15167.11827134
      18025.02824035
      4414.31382744
      4956.92352304
      4765.50728099
      4842.84734790
      6109.40434732
      9499.48573362
      10679.42639989
      11918.83203666
      7222.23293533
      6580.82097918
      2095.26762907
      6246.72405582
      10213.16974871
      20207.26908222
      9521.49322620
      17147.84761101
      12384.14611750
      6580.20391939
      10897.51491909
      9870.86492384
      11506.45449794
      7629.94358791
      9958.76754196
      9501.19551231
      2175.55058346
      8423.62126154
      13554.76732927
      1521.10578995
      5113.82120610
      9096.04727322
      9899.39086149
      2102.79135218
      6249.23377026
      8170.25919746
      5902.14032684
      3624.41608023
      4097.97917947
      9652.66353088
      1183.11723812
      3946.43961734
      2043.36066271
      1080.31132699
      2311.83989489
      2097.28627689
      2240.82966771
      -994.36744586
      5503.93662348
      370.15332132
      1137.25198587
      -26776.21078985