<?xml version="1.0"?>
<VTKFile type= "UnstructuredGrid"  version= "0.1"  byte_order= "BigEndian">
<UnstructuredGrid>
<Piece NumberOfPoints="5123" NumberOfCells="5123">
<PointData Scalars="Pressure" Vectors="Velocity">
<DataArray type="Float32" Name="Pressures" format="ascii">
      29110.25804188
      -44034.35328483
      -132895.44008825
      -127601.73600525
      44176.34660109
      12748.55509059
      -14517.10507953
      -25744.84330827
      98227.37616980
      51017.54872491
      26283.57787146
      63171.17952608
      56167.93183555
      32982.83435793
      19224.13928351
      20223.46634873
      12704.25542933
      25154.38215294
      10822.52547027
      17048.60717083
      19914.71537330
      12040.04553408
      13226.87616693
      11349.95034122
      12789.96312342
      5936.85490284
      4615.03837252
      11964.88401085
      4309.26422209
      5248.89256112
      4554.92936746
      7536.26478253
      4560.65143624
      -2813.41909844
      -1078.64111627
      4794.69843378
      5602.72356066
      4305.47693062
      -539.79470215
      6588.69140131
      4037.14909564
      -436.37916539
      -210.84806730
      -1788.34960206
      2758.22462592
      5249.78245200
      -2752.48072062
      4417.72223025
      3297.42235988
      810.71294785
      2298.30770706
      -1480.85603502
      579.56671436
      3962.30455923
      -1319.53141876
      2878.10758541
      3623.27918106
      152.61469452
      1112.57332753
      -190.08042408
      -373.44239156
      2525.62498142
      -217.50765436
      332.88831226
      -206.76705931
      -522.61603660
      227.68865673
      -10314.75400892
      41789.54496250
      68861.58300211
      80342.85909801
      104315.61175135
      12404.15413928
      43560.53974433
      20984.35272825
      2060.36188864
      3688.26985971
      9219.23083235
      15951.63449020
      11874.12829115
      7089.99437742
      6714.14129801
      10095.29532880
      8858.43687820
      5980.16786681
      6691.39163665
      6280.15953691
      2554.57344789
      4583.88041817
      4520.93117739
      1390.99219878
      1938.92339639
      647.77191837
      3605.17978032
      3208.92583323
      842.75620883
      1280.83650738
      915.83930068
      836.31295990
      980.37373325
      -938.09097832
      3328.38818896
      1830.85916710
      661.01709962
      730.10960459
      1490.64184313
      2179.27519783
      682.08448801
      427.51061234
      110.32426133
      2558.72915427
      717.96455377
      626.83346772
      1398.45914400
      647.22554449
      1016.40271040
      3698.91086659
      -377.94643973
      340.21076961
      285.35106834
      2388.34982766
      964.42547067
      888.23357348
      1128.77347706
      2899.36761051
      -2223.84376108
      -894.69053822
      -182.74354473
      667.31212050
      -105.97604303
      829.71054456
      50.72868878
      -86407.38484676
      -23218.57965663
      35829.78816985
      22895.07690199
      40480.65631177
      20185.46542192
      20735.76782820
      24002.65211350
      11119.63108086
      3113.25216735
      10498.35792690
      7906.84367571
      6698.92242190
      8816.58261750
      7816.77347061
      17023.29716495
      19075.49869735
      1233.41190989
      17768.55541320
      12337.86725728
      -1425.36912468
      11474.43268331
      6277.33828206
      37.41806092
      4047.26565333
      149.13074462
      2765.79471958
      5749.33376927
      -1175.86301256
      656.92094961
      2706.78742087
      -1338.36006919
      4251.63644873
      4001.11673023
      -2829.26110080
      3590.16085865
      2745.16939644
      -2053.32866738
      3371.92000531
      -1601.48133441
      -2116.28826105
      2521.06315386
      -2237.65265434
      -429.08025477
      2839.70613450
      -2476.29490562
      2872.57414013
      1546.68757916
      -2759.49125276
      2099.13019704
      -2316.35905531
      226.21626185
      2548.99952157
      -3683.21740445
      -864.39487044
      -589.37112569
      -668.22728011
      916.38003086
      -317.47560653
      1543.86821892
      1384.50203451
      -2025.47216863
      227.77908256
      896.23869977
      -1855.20116157
      853.74886838
      20931.71293715
      -5296.90700137
      -16671.69045353
      -23139.26805899
      48628.28076719
      -6158.30158865
      21945.01578967
      4810.12557956
      -6843.88747957
      8445.28774767
      -496.05299891
      7000.27609847
      12090.16032935
      12768.13433419
      26434.10114225
      23195.98257932
      17104.72915873
      13664.46763325
      9257.34445990
      7907.84000210
      9913.77201874
      3745.20115216
      6227.00022907
      6453.79634681
      1523.62538755
      10139.82189475
      3676.29249385
      3380.44013031
      10402.01879466
      3358.97158152
      -1493.30674615
      4019.37605274
      4238.35472160
      2655.73156395
      867.43083865
      2101.52531854
      4185.68254587
      4200.44293526
      390.31635100
      1770.21756608
      2527.22790049
      -162.24448639
      2571.39510744
      98.05402421
      -759.56011936
      2785.09847096
      1664.89017451
      2410.98364109
      877.83087119
      -526.61399454
      2070.31727862
      1140.20065598
      -2464.88298037
      2855.82632637
      1881.83213247
      -1007.13487193
      790.25681465
      21.61694758
      757.61289251
      813.72759035
      65.74810906
      1043.75625526
      600.01226044
      213.03563187
      -125.75057862
      569.30470973
      19562.16667283
      -16424.61971892
      -27916.00239903
      3096.15761009
      22273.28632922
      -2313.76615114
      42020.66370598
      -2074.87627275
      -1053.51194414
      4674.97107188
      212.33325789
      6477.22618148
      9555.90958979
      2942.99298624
      27763.58207622
      13284.34569798
      10097.57054086
      19424.52809786
      4254.13096738
      7898.15170340
      12687.67294119
      -2119.01618327
      2731.70280287
      6828.61643208
      -2720.07402485
      7224.85075001
      5820.44950933
      1057.60785977
      6057.66550308
      3016.48873409
      837.62608933
      3827.02879032
      -332.96208505
      2123.79967979
      3859.79029932
      -0.52884896
      3628.73894613
      3348.67650414
      -1039.41655694
      3051.08939781
      3686.05564128
      1109.13596749
      1232.60115892
      1375.84983751
      3819.59212564
      1479.50859322
      -1332.07944978
      2226.73390289
      1615.18847516
      228.00789820
      1965.62754113
      1060.22168850
      -1063.71643133
      1523.25010677
      482.38053613
      1427.48577736
      569.05173981
      544.61864994
      -277.90308813
      -556.94051512
      1294.17116497
      20.41914860
      -412.91622027
      408.69461214
      -195.61853223
      391.72407677
      -2140.79656888
      39181.87610761
      1281.91295284
      16983.08090585
      14393.32340017
      849.62196579
      -3005.52892517
      -658.68961587
      3447.19646887
      4500.60198657
      1078.80402459
      22941.07902048
      17262.32216361
      12282.56750681
      15820.12323571
      17506.39032005
      15285.33085237
      14096.89720757
      9425.38919320
      12218.78665277
      2451.92726689
      1742.93764175
      8373.21578343
      10246.80548595
      7713.69424686
      3742.46835735
      1998.73591234
      7183.72650995
      5343.76825435
      1055.38113584
      6571.35857123
      3244.38481164
      1297.19933696
      3712.54316829
      2939.03807118
      3971.72519622
      3297.44606029
      727.07473453
      4494.39163360
      2723.06507839
      -899.99281216
      3332.53744247
      1926.49478708
      1768.59258261
      2471.40305575
      300.72897702
      2951.24868428
      1003.59299791
      358.95989669
      2242.35812276
      482.49722808
      -63.03225279
      1938.17121791
      -560.87957787
      617.69142614
      -111.45884018
      141.65879747
      531.43858961
      259.84622576
      -6.44510893
      180.40868374
      119.29752528
      -4.15489164
      -383.41505952
      -709.64608275
      -156.17623492
      10681.94326616
      14619.23055399
      -18281.77308390
      -11764.39835653
      1747.13202366
      -1.40628001
      4117.67611746
      10248.55468205
      1534.76012690
      11889.06019090
      13128.48596496
      18891.63689678
      16052.90112899
      20608.88069706
      23672.26456118
      17130.75691448
      17939.13413089
      18400.81920338
      7955.36890978
      10643.25672732
      8000.98713278
      2324.51657029
      5710.80142047
      10535.29815839
      5280.50332854
      3896.13272069
      4633.36770486
      4553.40091215
      5196.14107899
      552.50303425
      5897.23706747
      3098.67659561
      -80.26750391
      4656.84172011
      2533.38187498
      2442.35294509
      2642.77323692
      496.34243888
      2754.57367282
      1174.61007720
      -430.53468906
      3162.85517361
      1308.65135699
      1908.00277630
      948.89907581
      -1386.79085939
      1828.88007556
      1157.03134610
      58.28212074
      1554.66820806
      689.74062551
      487.16716014
      315.45244716
      -96.33356244
      1009.05799510
      62.26983501
      -473.56459988
      131.44824436
      -724.37358856
      92.11717700
      134.24452966
      -548.79557008
      282.36590907
      187.95832636
      -324.68166347
      79.02268453
      -10895.00842677
      11521.03587817
      16844.30813102
      9684.98464180
      7867.13781485
      260.86524979
      4644.40464392
      13847.92868929
      16241.81078416
      9229.01278018
      19336.18005544
      13192.89895742
      26522.88097793
      23016.63382036
      8283.76820501
      19575.35198858
      18792.72063364
      7042.94655011
      15275.75800155
      9669.76463657
      -726.09052449
      8528.86737835
      5433.87450910
      -2818.04694151
      6140.45188274
      7851.51994243
      -1020.81001330
      7149.98764619
      6218.53306383
      1844.55413408
      4805.31498979
      2711.00003274
      2508.67664424
      3537.97579817
      -243.65544340
      2745.10781041
      3328.57549599
      22.56007375
      1791.16725227
      2463.35406910
      -338.71976521
      -737.98079349
      -1121.72202646
      -1278.33851551
      553.78755047
      494.82470089
      -648.44776831
      189.82764324
      -780.18078841
      -1062.23647313
      -529.64230914
      -995.83092090
      -815.55080129
      -669.36569928
      -1427.28916539
      88.40761508
      -261.54260003
      -723.33993315
      -596.03207590
      -696.37259703
      -8.25348238
      -257.46033444
      -384.06160072
      -298.94953655
      -544.15586513
      -92.80171251
      25575.80673390
      -487.42802442
      665.17198584
      15351.87700054
      20608.12816774
      3542.98674197
      5540.89952700
      32691.57543889
      41057.80568828
      19748.53479906
      18755.34511429
      26252.52996968
      28575.20435203
      8433.00424921
      12178.50719485
      21713.41331560
      11278.84694947
      11967.34477092
      5346.20700945
      5157.87848689
      4308.13243180
      1904.00757507
      2819.34171397
      2863.34156460
      7218.39993811
      6252.54936769
      -240.79996482
      5356.37316385
      6031.09308524
      -1023.74095957
      5632.44513446
      3288.74913160
      877.27038674
      2319.42760909
      1875.46292779
      4020.27773187
      3256.60238399
      84.90692575
      3619.60540437
      4872.64936004
      1636.21226205
      1184.42912756
      2767.64625120
      2305.43094939
      329.19795826
      197.55912046
      1658.38459428
      1165.00677324
      -13.48191614
      1296.08322255
      607.23889373
      664.77227540
      365.97302180
      -320.34669067
      380.00832401
      -339.55795296
      46.97633797
      -161.76325430
      -998.58152090
      157.85201407
      199.95294137
      -684.52463378
      268.62088544
      288.12337481
      -527.49607199
      196.07952683
      20429.76328649
      13915.67288708
      369.63703317
      37636.80267136
      28394.23018777
      6381.70246835
      23305.32337469
      21153.93901532
      20155.30880610
      20305.44372186
      13040.99667011
      19890.90943540
      22138.77740696
      10448.95966799
      30816.07384061
      15465.05343411
      9610.73304271
      15962.92033005
      2001.44358581
      6303.42608913
      9767.43006411
      -852.99455477
      1968.02726024
      5612.89330257
      -1898.14627257
      8436.47871231
      4615.25009802
      379.51412852
      5263.43915514
      1740.10013485
      1999.42118780
      4010.88789754
      919.56110589
      1616.95371000
      4465.36792704
      218.51711562
      2741.98739848
      2081.30530905
      -23.73379754
      2434.65808815
      2535.98616380
      1345.48437582
      3086.33494270
      1755.43568373
      2033.12005861
      1638.09794694
      1343.05657539
      1778.49473878
      500.20192136
      1779.67004274
      1291.45135016
      312.14897744
      247.55014053
      -92.60093650
      -22.89537795
      757.60179945
      154.39289241
      271.86930298
      72.53366651
      -169.97452046
      535.31433029
      -67.92744173
      171.78030955
      143.66045742
      -431.87376878
      176.35664627
      34112.48365643
      19963.19676387
      8589.13466224
      33902.79176088
      22737.29790578
      1629.05025808
      18409.91159044
      27165.74283181
      21479.58833071
      22563.30179384
      17023.50497238
      18790.11368190
      14150.10687941
      11290.41475090
      18813.28007968
      14105.78654740
      6348.24234158
      7793.14291352
      2253.86905441
      5875.14275081
      1314.59847035
      2750.47219665
      10463.31138198
      8082.09422304
      6244.36944147
      5442.53751731
      2912.65230219
      5894.75406285
      5213.83561608
      1141.98482119
      6605.73828471
      5314.69493410
      2552.51983597
      4151.61935279
      1973.15390290
      3719.83321838
      2871.35563792
      60.72246502
      3546.89178364
      3431.01566914
      814.98909885
      2670.07858072
      552.74545406
      942.18260727
      2280.50474276
      1190.06594497
      1107.33399599
      917.50527220
      -257.51548835
      1080.85863366
      734.66155558
      -56.28181937
      58.12619729
      -9.55020382
      -634.56818559
      328.27943414
      193.13473520
      5.21545292
      65.49214396
      -411.44874341
      316.50673644
      -96.58206583
      -208.75973080
      155.99278623
      -167.96705977
      -263.89166761
      22113.16420713
      14718.27303537
      13041.18431448
      19622.01654497
      23275.35743151
      10968.09446984
      19042.62883200
      29120.72669696
      28674.59463151
      16430.09180303
      10539.00549832
      20061.39334499
      13269.68319415
      6760.58600347
      11147.82034809
      9144.15765288
      6943.82451351
      10155.41051073
      1895.66952696
      10448.75688028
      6830.58537058
      807.83548578
      8743.52964356
      11804.47590080
      4166.53027337
      4119.38922017
      5207.75329295
      4203.28222632
      5398.27164717
      1431.90892125
      5939.25071226
      4396.75185651
      1907.93022372
      5161.62081883
      1909.64514412
      2117.59114882
      3606.59924591
      -819.60020321
      2982.81256672
      1929.28887923
      -371.59398339
      3534.91150748
      2121.42317067
      1657.74409615
      1507.37520530
      -616.87671485
      1897.95438986
      1177.67577630
      -156.25692622
      1204.46864704
      453.85809920
      494.86010317
      332.28046848
      -507.21491245
      508.34545746
      -231.80493960
      -446.01432291
      38.01404114
      -718.52018453
      -282.61998244
      -181.56181953
      -796.84192026
      46.53407367
      -121.72549824
      -242.98791351
      181.16976166
      -6180.03156845
      2601.67968926
      14546.18626777
      11753.89417625
      12920.64792387
      10044.49572391
      13606.48886270
      18058.88165836
      18430.66945326
      8263.34148100
      15894.85257437
      7397.33249333
      7061.76065121
      15584.26381111
      10495.01692703
      10375.09581541
      15342.25834552
      6178.73028953
      4322.68416615
      6211.12914145
      5599.67099278
      12068.32996392
      7420.26885162
      -2323.45455383
      8372.43760334
      7978.81843959
      -345.95571300
      5988.48552809
      4994.77886899
      799.13022328
      5163.86423938
      2995.22892898
      2540.67856588
      4574.55535792
      872.30496045
      1962.22529093
      2911.97833894
      -155.51286514
      2002.44195136
      2071.84562998
      -575.03030276
      -235.12731409
      -139.33828055
      -1028.67345707
      -392.17637917
      597.92794597
      -1456.85874528
      -582.12327709
      -783.52956559
      -1001.05061422
      -656.52604739
      -1003.92209260
      -860.28256715
      -446.51881058
      -1083.88071439
      -17.49784565
      -277.65458422
      -448.48138889
      -516.03131940
      -713.46202954
      -515.59993106
      -194.11998101
      -493.35797739
      -447.87595778
      -86.06224157
      -80.03555872
      30046.38507297
      13896.26453122
      11171.85027812
      21167.00093922
      18554.57962867
      9696.37329870
      8630.42200205
      8735.14094859
      13854.37680283
      16267.96596850
      8864.44401718
      12131.56779775
      12540.81099368
      6088.78494341
      3471.51742008
      8067.09433682
      9532.04589499
      8590.13986428
      -204.82753963
      5058.23018999
      6560.04936260
      1793.37234026
      3361.65113842
      2488.78533181
      4163.62642016
      6019.46901846
      -478.42442521
      4227.63411894
      5813.56498402
      -1087.80506099
      5730.45596990
      3907.77730944
      116.21072561
      2536.39429211
      3268.45105259
      3619.16878255
      2425.46317205
      -1114.96590268
      3746.99242646
      2725.98340192
      127.34858176
      3384.47915208
      2059.80653075
      1203.93633999
      1804.40918835
      375.65392081
      1835.05463679
      1214.16829845
      -119.27950530
      834.88568599
      429.39902535
      485.09070448
      372.37639158
      -221.84292719
      377.04256243
      -145.15913006
      74.77290957
      -251.78943042
      -41.10408062
      128.25325990
      -139.01710401
      -792.74218648
      -14.34995899
      23.41214431
      -393.17590417
      -6.97478878
      12419.10891550
      16708.23244740
      5090.46433554
      20235.95161000
      18632.91087419
      4858.59668822
      16551.98270732
      22845.33003007
      11164.12109671
      10594.32959631
      7542.40487796
      10219.59236766
      9378.87807448
      6800.54384032
      13263.47496652
      7334.39857605
      5693.36197969
      7528.20416915
      3719.46349674
      8139.21829467
      8735.61610306
      3311.13689228
      7674.18041393
      7456.46489279
      1564.26769277
      5679.17420668
      4000.33550160
      1568.27322406
      3459.15008463
      2423.69386451
      1670.46448015
      2834.44982004
      3128.12150015
      854.43448283
      3698.66686006
      458.33711518
      1721.66062121
      2097.24591861
      1847.88696658
      2087.38254743
      1813.77427803
      2985.21396838
      2688.45555204
      228.25838565
      2277.60084359
      1199.61828353
      1374.95988648
      1692.96341683
      441.25634625
      1159.35764278
      1095.02949367
      41.40013568
      567.71378101
      367.79066500
      79.09327815
      597.66034325
      255.79046369
      105.84075561
      33.83072690
      168.81852788
      108.63241427
      -1022.96160782
      -78.89503716
      139.17073433
      -177.57976806
      59.56351970
      8634.55532884
      14183.43730716
      8369.31203002
      13498.48317968
      8990.85553604
      9278.07835542
      13285.12495267
      12523.57924302
      4199.93336728
      9579.42684324
      12764.85049209
      3186.43718058
      5231.14246468
      10107.01472350
      9175.30495967
      3432.73568522
      5266.08400806
      2441.02919409
      5551.26306713
      5079.97807690
      -1093.29706145
      3686.75650816
      7131.40813388
      4307.97921306
      4338.27039995
      2932.19524827
      427.12578236
      3287.25673006
      4143.31835111
      1461.13237647
      3908.25335867
      4226.55563916
      1637.82887848
      1698.34504367
      253.20559747
      2932.45333585
      4240.85965844
      1964.95891273
      3638.33343485
      3255.55215161
      1907.70918472
      1019.29450607
      785.54772261
      -322.10770735
      3556.30875063
      3041.48200711
      1253.39753153
      985.90170799
      -253.93029484
      868.86166839
      1018.46439416
      259.88280394
      346.51268021
      414.37533983
      343.46294148
      235.94834369
      -5.06130788
      -269.26289893
      -230.15267036
      -458.46900689
      -125.82284223
      -479.45001760
      -574.91123781
      -155.54336907
      -30.47581505
      -320.23285937
      2498.61824255
      16402.08749805
      5619.76710224
      12549.97183283
      8786.95718403
      8048.10659362
      10914.42010825
      9004.32454507
      18563.00007710
      9461.38835577
      3098.84144944
      6481.42009104
      15162.01118054
      15138.82769515
      6890.18204898
      3968.16378821
      8647.95710310
      7259.66914715
      5283.13096564
      13469.60904505
      9627.99587946
      5597.00038792
      2075.25959295
      3232.97511022
      3153.77589179
      5055.11687951
      5235.27808204
      3837.71682751
      1830.07496476
      4294.66152849
      6724.16799039
      2332.45369301
      1157.51881971
      1359.06164932
      2143.64069082
      3338.00186819
      2390.03582883
      641.58394996
      3399.53556027
      1477.51847111
      312.97294070
      1466.19600986
      2696.10183748
      2716.15141472
      1716.69842445
      1305.77196331
      2763.02749895
      1489.72892552
      -444.07415684
      1163.49671337
      316.26451209
      196.28731973
      582.03968012
      -294.18612738
      953.31726728
      469.22922356
      -91.00055146
      465.79073801
      -135.32780331
      -251.42170492
      -251.90881166
      -925.48235734
      -200.26105734
      67.72433100
      -319.27473162
      -102.67291881
      7160.11186357
      13334.62102724
      5338.38043649
      12172.94958654
      13084.96824229
      10544.68062634
      8875.98991187
      11072.14103215
      19440.09854004
      9988.55008681
      6211.27405541
      4697.29483055
      11415.08473018
      10243.38772031
      7412.40651548
      3193.90276025
      8882.63734839
      4712.55783420
      2647.22418872
      13057.55518307
      5641.51901202
      3530.38245698
      12633.29234252
      3533.15291116
      1020.95599040
      5665.29965268
      6663.40917330
      8746.05712603
      4275.16374996
      1359.60242401
      5315.50599865
      2969.96943385
      1874.54387582
      2105.79348740
      4556.49955526
      1082.13597236
      1983.98397374
      2894.92190006
      1906.34273671
      2837.77065447
      1786.47484573
      -1011.58930883
      2632.90194856
      2503.99608684
      -73.05135837
      669.95201040
      206.74530028
      623.97981838
      426.37035188
      -485.71041070
      -357.04548989
      -465.30970123
      -108.09543055
      849.99300873
      -641.72400380
      324.74128595
      -375.49952291
      -74.03605290
      689.37603493
      9.83057752
      -588.74818172
      113.11044953
      -328.14354107
      -437.06198310
      -227.84647881
      -212.61644169
      26213.41740657
      9711.98325750
      2896.72876712
      17037.72610595
      14260.11994878
      2253.88182957
      4570.51502595
      4994.83384268
      7820.90455514
      10360.05586276
      9476.76137947
      17978.40873316
      9728.27705024
      -1546.48531101
      7782.91442403
      12576.39708590
      2666.71551607
      8523.81438703
      3024.59758481
      3172.06428334
      6594.09754134
      3484.37212453
      4318.01558365
      4946.04192370
      -816.49389603
      3321.02527091
      1550.78062061
      1109.33914502
      2408.73052430
      494.45811587
      2144.11772364
      2217.90955310
      1059.26939796
      1978.88629136
      1329.13647286
      342.95201141
      2950.03643231
      1279.12403998
      3501.39268207
      2794.67807412
      867.45292112
      2270.07196299
      2108.13381523
      598.73385958
      2335.50931939
      1224.76109982
      1916.49430625
      2022.29203293
      713.66151045
      1411.74288142
      1289.26599968
      675.07867671
      1150.51633983
      596.82079140
      601.48241256
      553.81725168
      -280.91173558
      -274.19338537
      320.21588833
      -44.09406555
      -424.77823999
      -344.69834977
      -338.31336981
      -239.67045527
      -334.34795803
      -187.67447762
      15296.28855556
      15937.47594272
      8959.15131086
      10615.70460019
      12696.64424975
      6421.98735628
      12962.78726697
      6570.81951801
      12233.03233570
      7424.45773151
      7565.40782079
      13752.51285855
      8437.53876734
      2369.62731488
      12020.45122256
      10246.26895293
      11100.17996229
      8956.48491316
      3120.34460770
      7137.92854610
      11028.13954063
      2256.98031722
      7283.55742184
      4828.04213795
      3642.27504125
      6385.50054917
      6507.27494152
      3429.26649488
      3347.47870051
      2264.07372484
      1229.35788625
      2164.85990965
      3259.48128126
      -606.26410865
      1639.31874022
      1125.65419617
      1556.39149510
      281.85112214
      476.23401599
      1535.68097743
      1198.90756222
      1678.65641645
      2230.64666023
      643.84732705
      2491.82112912
      1185.88816468
      983.12637264
      1901.45737043
      -59.13272979
      996.86442156
      896.31150129
      117.16447178
      1503.11711092
      583.39853652
      956.84462587
      1039.84989022
      103.72787752
      545.20001705
      508.53931103
      120.93449800
      -209.32914604
      -945.77996814
      34.06994988
      -17.45412354
      -57.84331104
      -38.27532689
      -5485.23031330
      -4200.98577965
      7985.21450681
      3923.03649628
      7486.77344462
      8457.91693946
      2798.35284515
      10862.75157385
      9534.14303336
      5762.92129221
      7865.93058699
      5112.34747281
      1282.43527782
      9097.01030979
      7731.82088328
      1385.87438717
      5986.32525990
      7497.71578420
      1656.24705463
      4209.20304157
      4909.02887530
      728.26715227
      2963.43472563
      2833.76946660
      925.04128463
      4163.31291065
      2032.84489404
      2761.71495057
      4812.49323942
      -743.96211287
      3219.29231538
      2841.99452400
      -84.66080050
      2722.22278317
      3014.32579893
      1996.38614064
      2730.04222040
      3454.57859784
      2370.31993404
      2785.09974761
      815.22811824
      1267.80694918
      1850.15217923
      1255.00187446
      2062.65105871
      1724.80516135
      423.83482511
      1564.96802693
      -565.62458561
      1117.65143903
      818.18689519
      196.87848974
      441.59320675
      -136.19826329
      -900.35703092
      68.27537937
      -190.11032514
      -191.85853346
      -890.39463424
      -204.39592280
      -378.17420521
      104.27398632
      -528.14947911
      -269.74082488
      -14.14826152
      -115.53184279
      27149.04514667
      9272.36223108
      -779.58627458
      4381.22816844
      7438.64724470
      13094.75175219
      8880.63768766
      7127.96059910
      16526.68061340
      7809.08506078
      4677.94508655
      5994.50354556
      6210.71715776
      9419.25128622
      5434.27633411
      5303.15056836
      9214.24593503
      4302.68732999
      -89.41165174
      7018.91869994
      3532.67371178
      55.57745997
      6547.45576279
      5307.75472808
      3156.31768213
      1160.81897125
      1930.78589065
      2232.03412654
      1862.29732722
      -1136.71259208
      2212.77596131
      2523.72211260
      104.25446871
      2249.70808688
      1094.47157533
      -344.24324528
      1202.42739227
      -568.55020163
      1823.30872077
      2431.62690534
      -893.29643399
      2218.81106897
      1907.99827882
      253.11362929
      1774.62615891
      1243.17596076
      1240.04475288
      2022.41401946
      722.39657145
      1488.77804307
      1235.85332521
      293.16351724
      1031.69583849
      939.44280184
      1132.92581454
      1236.26233071
      77.03802845
      338.49043666
      592.66469797
      143.42765100
      99.45152382
      -196.03003460
      -85.69650444
      286.15587640
      -151.36856608
      -136.31373800
      15818.74998286
      1996.97292485
      -2038.20780546
      14449.23362715
      7972.77905572
      5715.46813951
      8858.44975886
      3663.64605770
      5998.07602145
      7466.95587303
      3155.33848254
      8051.72484662
      5327.18191638
      7235.93940122
      5162.48445583
      6071.21286488
      8678.29279295
      6337.50406592
      -128.06990977
      6444.93705895
      6187.12672853
      -2581.57983651
      7238.98150657
      2481.39710077
      335.59280315
      6159.01430071
      3456.89137917
      3616.70180800
      2566.63275890
      2749.51402122
      1329.39315424
      724.72601174
      1329.33231541