<?xml version="1.0"?>
<VTKFile type= "UnstructuredGrid"  version= "0.1"  byte_order= "BigEndian">
<UnstructuredGrid>
<Piece NumberOfPoints="5123" NumberOfCells="5123">
<PointData Scalars="Pressure" Vectors="Velocity">
<DataArray type="Float32" Name="Pressures" format="ascii">
      43.37857598
      -23236.05459660
      -29500.43049605
      -35561.77368429
      -25076.91863939
      -19518.53514569
      -20482.92742986
      38296.50132401
      32402.43346798
      -37979.07088609
      -15217.21141130
      -24929.46055353
      -27984.74056564
      14102.79791147
      -24289.64383439
      22236.76393010
      -28172.76905675
      28876.16389362
      22820.42900645
      -19896.22698744
      -22226.93282716
      35649.37367682
      -22931.91674039
      21934.57695596
      -14188.86932603
      8740.81751121
      15834.15237484
      -17471.38112936
      17089.17725704
      24660.33472010
      11370.87850423
      -14228.97304430
      21798.25792204
      7447.71563765
      15676.16459009
      1277.23859682
      4515.17347563
      8537.88296318
      3766.66764991
      10227.25758704
      2524.13104552
      2381.47134187
      -926.98749507
      5371.54986053
      3063.59589268
      5976.93325084
      2814.08847624
      -860.03536043
      -208.51350669
      3831.78057142
      5737.57738073
      5733.45831096
      2969.34844425
      -1843.48014130
      3683.83069452
      -640.26734074
      1040.68057611
      1458.29193752
      87.77649037
      658.60754713
      820.11656216
      713.85564515
      -1312.27536290
      -1826.83823973
      2540.97495661
      -106.43369814
      13950.89052924
      23777.80860955
      11951.84751961
      18377.43103395
      10178.20079927
      6788.83117314
      8439.82297499
      9184.89273847
      13705.10809731
      10678.98790110
      11060.88533549
      8784.34571291
      13845.04054216
      7886.81728334
      6837.70430829
      10882.79203933
      12840.84192392
      19265.85466946
      16342.33446941
      13249.14695778
      11455.44431768
      4095.20997315
      11056.44283426
      11085.44336574
      4589.34915788
      5851.61143472
      11803.53839922
      11768.65283748
      10189.98490636
      7283.48538350
      5809.33844709
      2059.51965601
      999.59330329
      1184.92830734
      5619.56264408
      10810.85203535
      10316.21514403
      -3316.61142478
      8241.23014860
      5064.42033315
      5389.39238929
      2799.46224791
      7889.09530203
      6395.93060103
      -1715.00522506
      6816.19034908
      13401.12238181
      4904.55358892
      6626.03251727
      951.96566974
      2512.53135943
      4451.24286884
      9395.17307693
      756.03437017
      6436.57165953
      3584.18473828
      5697.38702021
      -2470.19343737
      2808.19547802
      5615.49298596
      3235.71111439
      -3802.43704400
      -58.77364340
      1474.70460550
      1403.10958884
      -373.76442448
      7113.86681195
      15842.10118623
      48862.02603828
      13917.12171307
      11420.85533705
      11917.23716992
      14998.43757295
      9600.72287052
      8284.08829148
      15672.39913703
      17521.43143293
      20566.52034268
      14340.73169585
      11685.43282428
      23001.11728537
      15870.98866758
      14031.87032202
      13795.13602871
      16019.56204633
      23945.69899472
      12779.31895824
      15147.34720699
      11820.46920754
      11765.56007475
      13987.77355266
      12819.77258239
      3200.26613446
      7590.53617030
      17557.61957090
      15504.27230393
      12408.47607496
      7505.66615690
      15273.11331570
      16645.14747848
      10082.52262447
      11256.42190885
      8442.12938494
      4349.29361139
      11962.87547182
      6995.75947152
      9494.05916791
      10037.53992869
      11315.54033471
      5361.53591407
      7116.42408695
      11519.80651841
      8672.42448009
      6199.47768091
      5839.95935092
      4834.42176552
      8464.45651633
      11830.44549178
      12267.31426074
      6929.51386041
      7501.95824361
      5096.32782305
      3158.70005826
      3632.68709433
      4917.12698232
      3757.75546697
      5271.15183683
      5073.99390936
      3119.02844474
      8253.77522292
      -1596.08296028
      855.79637286
      6843.67719385
      14994.54605111
      21752.12690838
      57422.83278580
      20697.22535082
      13603.83965060
      19993.05103332
      8234.08328165
      18091.10213977
      6535.29779629
      16721.77526572
      28025.82624931
      16920.02111637
      27727.08609036
      12245.05719270
      13390.22226064
      19709.86931943
      12374.07791910
      14769.22980106
      17095.43936981
      7653.75798733
      18229.54978440
      28080.78216636
      21110.09287494
      15031.08481851
      28497.59075586
      8827.59770217
      8977.46538477
      8763.81153102
      12697.52818168
      17989.46704132
      18620.65922762
      16809.85138968
      6919.32125396
      7927.37924449
      12484.60944686
      27603.21758295
      16645.40677354
      1129.17561583
      7913.32761643
      11220.15609962
      2581.18617476
      6713.70395688
      18046.62915563
      17958.74720260
      14001.42491441
      6814.24579124
      10744.38587588
      5051.40564416
      6117.19564642
      10027.56843261
      6174.00390928
      6179.47730764
      6611.60520776
      9310.48309345
      3395.06672527
      7465.01021850
      6794.89382075
      2455.05225974
      2669.92768544
      3525.28378626
      2973.68819123
      3090.66845013
      2369.93934683
      1452.97392098
      1352.19148640
      15119.36154161
      18808.93268281
      34540.74480725
      35457.92533843
      14105.05411749
      15416.23903601
      26555.50861089
      48932.92633690
      9335.91256255
      27007.77521160
      7201.16286532
      17914.04918169
      15472.20865382
      17682.66917692
      15541.37849751
      14989.41063976
      10987.44854055
      10392.82297606
      10669.12860895
      17277.77963688
      11695.22910886
      6476.80659113
      20440.28533875
      11069.38903753
      15609.81234300
      22483.83488241
      16785.19977749
      3551.32195612
      11184.75084501
      20377.25158440
      18496.11412278
      7289.59405977
      13449.28985958
      10849.76030803
      10185.07759623
      9321.60041731
      19709.44949052
      17640.25734807
      13274.30949583
      13271.12644582
      10251.85089313
      8925.78981675
      6454.93731258
      3725.69240218
      8837.15348612
      12864.86234284
      8074.61586909
      6212.10027240
      6603.55795437
      6597.27943691
      6748.95088769
      10981.00710596
      2953.96409162
      5182.76034840
      5243.09134240
      9700.09416087
      6090.65125289
      447.60889955
      5440.05553509
      2735.93406037
      1121.40830753
      1123.44114595
      -34.14502254
      3135.55532343
      -1976.20981831
      344.28182172
      -17305.06999468
      8815.96932605
      12832.59447190
      15784.86209002
      23240.78055916
      6613.41167359
      3275.15418337
      30001.76848213
      16923.75023196
      41662.30358471
      16946.35996663
      10134.43780171
      7596.03615589
      11321.97756734
      9182.59774738
      15450.58407677
      21188.17432504
      7623.18644096
      10518.70273918
      18875.38298273
      15023.17602256
      14982.31434216
      14295.10191146
      18591.25260679
      11472.17621920
      9800.67377802
      20199.44883801
      13639.49973761
      10836.04768777
      8002.83586869
      16288.48690952
      15533.06981032
      10291.86196374
      5967.44797230
      15381.90357763
      11946.17031687
      7929.34078863
      21009.38387321
      9120.23367336
      16276.20092700
      14193.86074011
      13212.12772832
      9880.06876523
      7452.15802199
      4981.75863366
      15451.29277541
      6748.79306846
      4171.82812492
      12534.30371654
      6467.56175272
      8530.16519714
      10916.86269842
      8634.54124133
      6985.00769213
      2556.27227240
      2969.41525284
      11317.46890993
      2800.59072845
      6477.37425729
      3249.53839534
      -193.89606382
      2168.16156306
      466.88824523
      736.75713042
      1430.11016543
      -595.50704222
      -28807.02041058
      16639.07559867
      23631.07786627
      20495.12480821
      36890.56050598
      36562.85185843
      5696.57768298
      5685.20564615
      7146.07305993
      11487.30642703
      16440.23051282
      11970.79072324
      11414.73617087
      5986.76929054
      21585.75258668
      14053.64200753
      15489.73428875
      13411.42753608
      13059.22093118
      22972.03881903
      19197.07714272
      14941.46679585
      22059.34508145
      18469.41606543
      3238.31617011
      8835.90861186
      27491.92389091
      16777.38197697
      13602.23758764
      -1225.12458198
      19998.78140541
      16123.80401679
      14394.00030978
      12296.23948035
      9345.73234655
      9409.93072848
      15973.74339199
      27807.30344812
      13789.68800308
      6721.82753301
      10687.47824471
      21188.89495885
      22227.58106074
      13931.62155752
      8365.08049259
      6207.08397434
      11134.52511883
      8658.82142531
      7457.26445844
      8057.28998198
      10119.57772542
      5660.01755418
      9724.76101943
      11432.81600638
      1084.19760436
      4825.32767949
      9211.21905621
      4402.63133059
      5691.22614671
      4149.42384835
      3897.06016086
      2893.19002676
      2206.10754058
      2898.01732467
      291.99355706
      -1340.68786228
      10765.19237586
      18055.03589114
      38448.31251617
      8462.57833880
      2699.36796051
      2031.14599938
      4806.35413395
      21590.19198532
      22227.16301923
      5571.96994081
      15789.59556910
      12654.60899685
      19592.74237762
      10481.45626554
      6154.58418872
      12450.42188285
      27288.77808660
      9035.34807334
      8154.70582328
      10208.47647632
      13324.35154605
      14454.66580666
      27001.20384760
      12731.25320861
      11637.88327645
      -1877.80343733
      12595.52001230
      18287.44037111
      26691.87651801
      12115.78213794
      4050.59952074
      11091.33186201
      14886.59086644
      25754.15606814
      12137.80731189
      7942.26066642
      14457.07740750
      10059.33930762
      14725.55212714
      10809.01312747
      4776.18610648
      12461.83646712
      19862.50825786
      15187.61246279
      7113.13121914
      9952.55890520
      13603.79300684
      6863.15791978
      6465.63535492
      10542.36733984
      13102.81408785
      8174.78170060
      8049.64377882
      9521.75456993
      7099.94612887
      5062.06809110
      5695.17358040
      3524.34054417
      9290.45389123
      14141.55355046
      3788.06861789
      2035.76655370
      3045.37864473
      1325.18693595
      1550.09427221
      650.46175525
      -18063.76538625
      27620.60383091
      12877.56199892
      12955.43165197
      14253.28681971
      19919.95021732
      21994.48429765
      17515.51892559
      21747.95074927
      12041.07478933
      18591.81484631
      14840.35177467
      21982.00858819
      10919.70137182
      12186.93730482
      11836.14958577
      23303.38959164
      13904.46370519
      23516.35233477
      11380.69350147
      5747.57664717
      8165.62410156
      21912.70589754
      19334.86332608
      13869.34126923
      4057.17281374
      3675.48742764
      12057.24461014
      23280.73566496
      16867.81967114
      6059.29516604
      5630.32975363
      12767.84118486
      18037.35620634
      18978.45543260
      10568.03803622
      5875.13093473
      16935.70151300
      14147.21789785
      15469.33725933
      7595.50124881
      12872.37679437
      11470.73133979
      18583.53188521
      14944.57651802
      12815.80514331
      6768.75981682
      6913.95393981
      7766.24586108
      7684.13297872
      10544.13554586
      12615.14611636
      4851.68260668
      7778.25067901
      7258.52957839
      1696.25488553
      6401.32642727
      6775.15661967
      3144.25308279
      2380.66378779
      4154.47356479
      2605.70428184
      1120.46896216
      1712.66062391
      1071.34005505
      1210.03092307
      -35532.71009678
      -15405.75191461
      28046.88441493
      17970.24585565
      17947.18226144
      12782.28683857
      18687.31507934
      28123.36719629
      14294.07175265
      14026.14660785
      7193.83940859
      22198.14842820
      21166.06745806
      470.19670593
      18132.73826062
      10033.79317354
      24384.49305622
      14486.99658764
      7364.11434113
      9969.72310751
      9675.43852875
      9588.63093551
      14924.19402874
      11528.88970937
      9029.93454525
      12310.32589977
      11846.11428221
      2885.11049867
      11669.33997486
      13393.44370791
      11180.01669822
      10370.64737048
      12979.05811898
      11953.75868144
      16277.10807444
      19636.32109195
      9614.54807658
      6885.38531647
      18131.41089651
      28757.75891499
      12175.14495917
      3357.73351095
      8698.42217718
      16411.27547988
      15677.52772897
      11284.42703977
      7548.06448212
      10843.41451990
      10860.79920722
      8000.26643411
      6588.07390697
      10995.24696157
      10147.18085900
      7630.36046932
      9660.37340394
      6826.66542590
      3195.66267177
      5210.36030694
      6251.43136994
      4625.41284982
      3025.26521321
      2667.28398468
      1672.06964161
      2901.44018809
      3149.20268448
      477.45167621
      -32327.05726218
      47368.11605278
      12035.21573084
      13920.09994569
      15920.87104908
      11454.88529942
      19717.67359815
      16425.18996258
      12481.70069166
      13433.70660129
      6858.60816534
      31220.24245693
      3218.00084350
      -25.92158697
      16434.27284174
      24045.40310524
      14669.10030243
      15777.05182826
      18076.13944429
      5457.86162493
      8647.65123223
      18088.64817459
      14158.11662519
      10408.49818737
      13689.56761026
      10958.03881726
      6521.17062138
      15496.16913616
      9657.51067126
      7543.72977086
      13446.42165667
      11080.00712359
      14033.73082258
      8528.31517416
      14869.57142381
      20502.37159761
      10629.56210436
      7351.56726844
      10655.02958116
      17792.91476447
      15895.16436190
      5871.11435499
      13858.55497033
      16033.23611509
      12262.42913882
      8222.01865661
      4979.75803007
      9786.62448703
      3956.29983701
      2597.66020996
      7738.97805323
      9173.79711837
      6130.86845799
      7215.86605304
      7077.13850992
      4861.10578055
      4124.29764796
      4870.27279136
      5144.71425741
      2285.28699019
      4812.66760623
      4101.48346763
      1197.11081273
      2000.08008069
      261.04443019
      2330.87225892
      28855.76847906
      13446.46217767
      23689.00867566
      22222.45673862
      12427.64766529
      23631.22572774
      26158.95196213
      27139.17858817
      30718.99821874
      12260.09792156
      14508.30518610
      15239.12989899
      27934.90385432
      7547.75135257
      4335.92926663
      21976.00555058
      20194.45485407
      12859.64200854
      12044.56272638
      11218.52424466
      17190.73913205
      16623.16942824
      11977.51089767
      10532.70094036
      12118.82855047
      13863.01930676
      17900.28476233
      9825.34151937
      12294.77003755
      19812.74160767
      10499.58588731
      12818.82639141
      8809.77285485
      5850.49896744
      12761.54238082
      19061.16454161
      14904.76159553
      9740.00177143
      14039.41536491
      12716.17521089
      15498.67400328
      11810.05978093
      10748.98619788
      13079.49747626
      15705.74666053
      11274.12348741
      8603.64964827
      13069.11889753
      10222.00206281
      6356.96584003
      9510.65269342
      9137.00399273
      7742.56730732
      5061.51065052
      4717.34695409
      6676.35902685
      2615.27539123
      6055.19695214
      5278.24519325
      -480.90017647
      3731.13751288
      2464.50801308
      -2361.70469680
      1862.55917787
      -1790.87487735
      -61.10522093
      8289.94278846
      21340.15025661
      15483.08664560
      14616.49794600
      9712.34026676
      11518.10051225
      5447.98581824
      9641.14154204
      10643.69893603
      17950.45827314
      14249.32175759
      14514.00555929
      17585.73261755
      6859.78375383
      13582.74688291
      7390.36420748
      10953.70985097
      15513.88628142
      13417.81261473
      18752.35652040
      5384.30899997
      5594.91731030
      12718.17637179
      13335.32071894
      12478.89317072
      14842.27605347
      8739.12112401
      12407.50819147
      14901.38748375
      11233.68784871
      19604.23798988
      15578.24629160
      11830.22094138
      9147.24600722
      10517.35973072
      12410.89975213
      11249.51823956
      9781.92780318
      6513.89151237
      16046.38214105
      23985.51351310
      8900.58269394
      4502.19942078
      12985.93393598
      14164.02783485
      8146.94102211
      4219.00584084
      11486.23025436
      10390.69017825
      1744.53348924
      6003.59287854
      9010.73274704
      6160.18919865
      4697.38489986
      6372.76113233
      9378.44893319
      6272.41058589
      2428.17271312
      6109.65259012
      5956.15697043
      1213.58106649
      -1103.42327187
      -548.93603505
      -991.84231228
      2515.06147450
      -1558.51354872
      -21864.52396649
      26072.51659613
      29033.26955898
      13196.05837528
      26996.30787904
      23860.14615594
      5860.48966820
      25063.90181036
      5830.26192163
      2994.47710009
      16058.26466499
      26608.94426899
      12336.60650696
      15928.73345540
      13836.51419178
      15738.70374893
      9487.15523534
      19071.74982055
      12769.35353250
      16944.61582266
      9736.13628363
      6730.33529391
      13691.24228076
      17990.45547579
      17426.44986287
      10362.96452536
      7196.89696951
      6428.32409678
      11479.15488159
      13296.89278365
      16965.97163846
      11583.79969864
      9152.16332731
      12906.38176908
      7028.93116438
      23287.58020637
      18435.24140122
      16006.32166766
      9068.32446875
      8064.10467508
      17710.58438607
      10101.23398108
      7336.10143530
      9181.22682533
      17256.92419574
      11364.66765873
      12709.05701292
      10353.03005300
      4940.91262793
      5976.28895297
      3480.45135169
      7529.03261436
      10926.83282243
      8268.16774914
      2618.70678689
      6847.91730976
      5414.04027025
      2446.15379839
      1740.01084436
      4479.55499630
      2265.66700255
      3776.29667503
      2117.77432680
      -2145.16153182
      -1157.75256198
      -204.11224104
      24341.52602740
      17137.87496563
      11233.23889064
      13400.41704267
      44139.57522810
      14103.97180930
      8572.39519834
      39520.38210973
      18451.41348190
      18970.76647079
      9022.35726261
      13703.09900191
      8807.70009576
      12397.58038599
      11144.20309023
      11018.78809192
      14064.87766082
      27444.79622575
      18745.26014325
      12763.64927782
      12679.71390029
      6686.42526201
      15765.39710114
      10573.68370890
      13388.80759359
      21307.16058480
      14815.85546258
      20124.43761316
      13829.51379999
      7537.70491937
      14486.59228298
      15076.35950129
      12214.78147840
      9759.95279706
      11030.79374258
      23411.86974500
      20544.93441703
      8145.27355175
      7366.61717383
      12719.15087014
      16470.62316037
      17178.20851546
      11509.73210522
      11948.42175344
      9864.74081610
      14667.38573667
      2335.49495705
      1824.17962061
      7012.38514815
      5671.23181195
      6256.65522816
      8090.74261932
      5021.52410671
      8719.07246090
      6273.57512565
      9209.61462043
      6929.06703077
      764.97898797
      1398.71510987
      3515.04494865
      425.53739076
      2354.80407997
      2795.17840692
      623.06521861
      -330.39013296
      2143.57210844
      -22514.47590217
      17724.41333848
      9145.23684802
      3277.87698133
      35959.19388172
      14872.70038178
      22714.09418491
      6533.29202949
      6187.62054520
      8747.45599759
      8119.83070405
      17547.88853028
      19501.85681587
      8949.51086882
      7997.88206755
      5979.38465227
      9546.05716531
      14394.08489048
      15625.67763501
      2606.58776830
      17173.10168598
      10770.03451708
      10796.22020477
      15596.37781872
      6168.90738747
      14958.13304128
      22761.36061608
      17440.67998443
      8426.69786627
      15059.73392602
      12465.87631693
      14531.88481958
      18767.94992625
      11846.70306675
      8363.39118584
      9359.46288234
      10823.12850607
      15945.38777678
      19768.93654229
      10268.74195571
      9443.60533803
      18344.79450963
      13592.49339254
      4042.10279351
      14404.30675707
      12111.69366076
      7087.81078947
      6771.73042204
      8991.63542425
      4826.38769257
      1955.38205227
      10598.37521759
      5442.50753536
      8522.42639026
      3151.06153501
      5824.08773243
      4017.56094991
      -337.95933100
      3720.20930697
      4518.31019831
      2882.85786546
      3519.13200499
      1131.55283241
      866.89951579
      194.20072240
      315.29371000
      29223.51380911
      16838.33234444
      16228.44451947
      19816.61420965
      32863.26402324
      20395.78538296
      17598.96557587
      11095.42881412
      18254.29247501
      3969.68436908
      12265.57426774
      17803.30321281
      22488.12096368
      29065.21913687
      10394.16968078
      8501.20899389
      10869.17720848
      14383.62168032
      24399.26517050
      15699.43029213
      22285.75022721
      21030.19397351
      17318.36001737
      13497.19089815
      14225.00038877
      15903.15787893
      22525.55449696
      18292.87316605
      21300.94447628
      14448.90472491
      15921.03553452
      17864.16117623
      19916.05523530
      17578.66486796
      14830.07104172
      8612.56209409
      11843.39705495
      17983.94545056
      10018.13240472
      1155.16530183
      6431.82264153
      7792.46479834
      13925.95874885
      14336.43186430
      5780.90044503
      7548.27662783
      14064.41439264
      3644.02756560
      3118.57532393
      6336.67519143
      4732.62848270
      9129.73178632
      5094.37738146
      5340.32568591
      6740.64085577
      4886.79243152
      9788.52779366
      4145.35923487
      2625.82657800
      5093.87505593
      367.40260943
      4743.10800276
      1865.53923211
      1843.97199922
      2142.70758445
      971.47867162
      27459.06832850
      11967.43302227
      8938.43298741
      14303.70289569
      -215.88540634
      17949.04158183
      14588.23031712
      24362.50521981
      19753.38305501
      5592.50743464
      16734.59593315
      -10231.19969376
      26625.09105932
      17926.62500750
      10542.72964927
      12144.96829959
      15347.91514838
      19899.31854169
      31336.73688493
      11217.68701186
      7883.02416118
      10691.84112742
      17389.45226038
      8838.89033023
      10730.70655471
      19662.64101889
      19334.45755907
      11446.49487782
      11284.63227458
      17871.20792446
      21732.71916830
      16434.10974866
      6816.62868901
      5894.62619334
      18292.99193427
      15629.98337353
      14765.31300844
      8987.29120673
      17972.16479322
      13729.60933124
      10718.35789628
      7109.44746216
      12972.64544255
      3922.18903109
      580.71221122
      11866.85386246
      13405.12911848
      4765.46362519
      6517.46904699
      7824.32704741
      4213.64357654
      4728.53924085
      7259.64299909
      7661.60755832
      5200.29935639
      1649.68832845
      4539.97413879
      3974.53111152
      5638.27044040
      7527.61105587
      3611.86074070
      1527.63120660
      -595.20347937
      2091.08126306
      -435.60136435
      951.76671202
      -25239.77899185
      19324.37102326
      -4694.54253879
      14512.63685730
      22840.49212692
      367.64661339
      544.62160138
      -1378.28781747
      21794.85033249
      5377.29529935
      40917.38870224
      20118.21753997
      12420.92257758
      12357.25297412
      20435.31231880
      12922.80381216
      -689.26949454
      9692.96397791
      16469.27871816
      15053.01727410
      19134.36825809
      15159.76307934
      15739.06939006
      5863.58612952
      13101.67391144
      9258.63141762
      11183.82885511
      10352.98138369
      20058.93438159
      20833.46830360
      10854.80954687
      8321.09243215
      9907.76706271
      11892.48090027
      13038.92897959
      15285.29527033
      10308.31962021
      8225.13900686
      16557.01631078
      15055.77088850
      8295.58824930
      9844.12566317
      8910.88286391
      14270.80882257
      8492.51497645
      7205.07607112
      9380.50760439
      15275.72763439
      3824.62726662
      3957.29770114
      6849.01578787
      7162.66470414
      6581.12497799
      10020.13453284
      8768.81443236
      4328.33591481
      4549.51687365
      8200.50838122
      2125.79864138
      2251.46726496
      2421.68263163
      808.83102163
      2344.54713040
      291.99972522
      -1138.05541155
      -523.65723991
      16889.75255719
      5113.00871267
      11846.74693799
      30107.41267340
      12101.57035583
      45427.91139884
      17543.53817654
      27278.55281687
      13978.20232302
      16995.40526724
      16661.84541398
      11011.68448628
      3112.55357154
      5178.99585338
      11281.07001108
      12865.42155200
      13808.10355651
      7990.56520361
      -1473.07617876
      9098.38233071
      12041.28286684
      14940.74271683
      7591.04540171
      9713.28237008
      13064.59350457
      17664.67775144
      15606.16558417
      5929.65219718
      12429.09097927
      20629.89693913
      15269.29998956
      9719.08119190
      14377.45491279
      11566.91213918
      12695.26790225
      14666.64127330
      3334.18738689
      8108.72017599
      13962.32278229
      14301.84836438
      5538.22915358
      7945.20963802
      10843.75731059
      9737.40579507
      11057.21890258
      4761.09806049
      5150.53024919
      10307.68589927
      7952.92845225
      9034.44357700
      5517.03163660
      5833.93963399
      5528.04472247
      6805.68849350
      1298.69464546
      4620.02796411
      4752.85725687
      5520.18259681
      6546.38683610
      2064.87439887
      1635.54755384
      1057.06011302
      1341.44392615
      2233.99521339
      -777.79085282
      -41.82590942
      21922.67620563
      11717.03774072
      9655.80781350
      -17387.16797847
      -4099.00375981
      971.10187563
      24684.42364975
      5782.05251081
      8853.61795080
      3735.70211211
      15776.62175649
      8563.40633786
      -1977.11854296
      -452.21445172
      1922.29353246
      13459.84134274
      592.73037181
      10643.82717823
      9186.30744566
      15167.05934636
      15005.51243252
      9319.08944328
      5036.16472972
      10053.50384503
      17214.48738844
      12715.74872605
      3220.00503182
      15757.06340913
      15387.88991435
      4483.96950797
      10761.58649766
      9888.16457047
      10902.01306151
      4778.49128807
      9151.87280548
      16196.72984781
      6432.96008551
      7083.16430016
      7425.85069212
      6137.50624933
      14866.39789276
      12151.24876730
      3376.70333223
      1589.35194812
      8280.10735966
      7604.88710260
      5429.86902118
      1710.50205978
      6009.69607513
      2137.56811789
      4376.49270175
      7755.07980236
      1511.76209960
      8377.00679362
      7510.82677532
      7730.11429824
      5360.63201352
      3131.30384095
      1428.60709826
      1252.72921774
      704.58167333
      2427.89516298
      300.42509314
      -431.36534830
      -3482.71211304
      608.22088525
      -19965.59071168
      55685.43182365
      2749.72783951
      -5575.38359880
      14734.31935139
      23499.53003438
      22844.48100995
      20164.46490850
      4389.98634845
      16892.53491670
      -1101.27050878
      8001.12084919
      15775.47059914
      5550.37675150
      2743.21613873
      17496.62889738
      13333.48702233
      8259.05731366
      6105.98877469
      4246.97421035
      6844.08168421
      9964.22050267
      10701.45411701
      19920.31646383
      15326.19276669
      7272.16907707
      15195.79579087
      3715.67575761
      10197.14146086
      7936.93460157
      15974.74290168
      11490.31578323
      3827.21340291
      6674.42229271
      11585.52134517
      10174.61808058
      18047.04661696
      12142.21467097
      9569.23714175
      2578.84999141
      9995.82812381
      12171.87979095
      3925.93642328
      340.43490602
      9157.03711091
      10619.38387670
      1688.36260218
      2646.86004583
      9989.28461855
      11295.19471367
      7003.54621528
      8542.97547438
      2989.56453067
      4049.58139736
      2189.19544128
      3904.94569531
      4686.80114935
      2189.29238998
      5436.44508868
      4112.32899512
      346.86288309
      3402.69500546