<?xml version="1.0"?>
<VTKFile type= "UnstructuredGrid"  version= "0.1"  byte_order= "BigEndian">
<UnstructuredGrid>
<Piece NumberOfPoints="5123" NumberOfCells="5123">
<PointData Scalars="Pressure" Vectors="Velocity">
<DataArray type="Float32" Name="Pressures" format="ascii">
      -272558.07434667
      -64986.81902884
      -29292.44769471
      96595.35111439
      -36888.10474132
      53170.61981432
      11555.69161290
      3989.56106498
      31032.46125354
      9134.79115208
      9795.34329563
      18543.86340895
      24231.10578891
      13315.85772520
      10464.77758629
      8319.53489462
      21616.02348371
      15137.21447795
      -222.24715713
      14416.69570240
      19858.23838988
      -104.55425944
      16431.93715074
      6626.05872788
      8531.62594172
      5854.70682725
      4411.87105484
      10803.64610646
      5602.74300776
      -374.93007725
      9752.56022924
      7223.55358950
      -1261.34785014
      6487.22070700
      5302.86222745
      381.54835253
      3392.62134427
      664.41499256
      3460.47977391
      3185.66192306
      -982.15739916
      1970.40956082
      5188.63742884
      -677.44230281
      5413.85079080
      -1014.70420295
      2328.50995235
      6052.89391220
      -120.24012365
      3447.39202296
      8262.25417926
      1631.30606153
      -1339.27336891
      1007.39842461
      3101.72720255
      4125.78318736
      1089.66566435
      167.98534453
      4089.45086986
      -695.43961521
      2058.37127447
      63.77323781
      -758.98133259
      -571.91301228
      -931.15290922
      -558.83088722
      14948.94774443
      -172322.72383453
      -88693.16394396
      38505.71299300
      56579.73774071
      10122.41827005
      1512.22046519
      -1691.46395501
      6101.75516407
      5595.41760677
      7667.41678275
      1995.76400170
      6077.68274833
      4120.89807911
      282.54303383
      2092.73467059
      7386.51531888
      5468.98802723
      3500.47442591
      2226.74368570
      2443.47308488
      3445.29757469
      2335.94189435
      1684.02096032
      4907.18575516
      1793.63788060
      1269.94417986
      2436.42753007
      1480.99383205
      2962.49997585
      3011.16173511
      2052.21732157
      2608.75720866
      1573.27142291
      2266.22956079
      1577.47134536
      406.99005342
      2109.01825803
      1353.46665583
      2048.65140171
      2935.46689553
      2663.11022782
      1867.59828569
      2411.99830651
      3842.76934277
      1092.51192696
      1013.53930792
      2019.93490237
      2233.79353732
      1958.99864831
      2152.12267784
      1716.68070653
      2545.47205600
      -967.95824116
      -178.49335613
      -518.32102808
      -635.68229515
      266.92008075
      744.28002960
      -1107.28145546
      54.28235158
      -689.74993024
      5.05757720
      -634.25764628
      -442.23061544
      -21.17819039
      112551.13089909
      14918.96961604
      -180202.02361306
      -109053.35817021
      -7761.11429567
      7346.74485544
      8577.00771248
      -998.71721538
      2474.63554953
      2601.47896198
      4829.27984814
      972.79905611
      7130.60673766
      4201.61700707
      -717.37952485
      4325.90255279
      2053.81789410
      2248.20811909
      6196.86940168
      7159.03313885
      -900.65741149
      5834.23813624
      -1254.34915170
      1016.07927872
      5167.17136293
      -2648.36667168
      2242.40501100
      5081.95939720
      -3926.45662267
      1587.50143309
      2051.79481622
      -2395.12250255
      669.58632479
      1025.40710048
      -1513.35521268
      3092.12089345
      -2120.49190955
      -2451.63185675
      3410.42012984
      -2822.92466712
      -1301.03530762
      3196.55551118
      -305.82053359
      -134.06812132
      -911.67098034
      1229.82097866
      3448.76643887
      -1174.98047499
      -135.34368363
      2765.20307074
      695.31987810
      862.03320237
      -60.94513103
      103.45387074
      3045.27768469
      -834.39353824
      -256.95270174
      1596.93867078
      49.77945238
      1009.30827173
      -841.44862101
      -1224.53612677
      -163.72378808
      -159.36573834
      -3108.86948933
      10.35399622
      12760.51392788
      43994.40057869
      -123005.70775859
      37066.16378824
      63653.52979588
      17055.30080086
      9360.16556555
      -811.55194935
      8985.18341374
      2384.13545738
      10271.82092637
      7218.27209252
      8354.10135347
      5364.16027334
      10298.88043810
      5761.91430918
      5329.77884300
      4275.69955602
      5403.04287105
      10598.05320139
      5989.46160277
      -206.88208956
      7037.17738193
      4353.52258484
      -1750.61093229
      7542.23187621
      2650.27040422
      -1441.08175036
      8015.82487317
      2722.98364398
      -2241.70442858
      6039.09108464
      1880.97829774
      1736.82560134
      4051.20357820
      -752.38151673
      4774.00751107
      2714.64436951
      -1450.39567069
      1482.88827736
      2366.03383508
      1793.63665627
      3080.91981644
      2650.78344008
      3387.68896241
      3717.09213265
      1.90740518
      1144.72222641
      3709.66732898
      2216.63847446
      2627.83655600
      2153.16994956
      -236.83880785
      2420.09253375
      184.08747396
      1222.45486769
      569.89004536
      -1221.67011078
      33.19862783
      -1194.56988353
      -2103.39709287
      -420.91144079
      -1787.26826125
      -85.11759118
      471.30863228
      348.00918697
      8010.32670108
      4970.14911865
      33230.33634069
      7412.96945854
      10269.75844520
      -5179.03263524
      10713.44879786
      17940.17908782
      9354.05701556
      2365.42997005
      10901.60348366
      5183.37925563
      563.72090359
      -829.42842821
      13307.38664445
      4413.47720219
      6277.23505462
      9084.50132667
      3624.19417034
      7128.73426614
      7314.91814269
      -1714.91850647
      7367.26567687
      6403.93141939
      -1656.80422513
      7532.77340081
      3867.33654313
      1038.18271358
      9436.72759740
      2950.04520204
      675.13307845
      5429.95194212
      2087.19659627
      2881.81340421
      5047.81142596
      1491.94276714
      4910.73470841
      1445.85010686
      1026.57898268
      920.53036602
      3042.23984291
      2151.69244731
      2517.14847279
      2709.06732285
      3354.25629584
      2790.97542292
      228.43162085
      313.48282290
      2130.48376753
      2265.08575904
      1920.05242428
      1413.51912371
      -521.20365084
      969.21713907
      46.78286536
      878.73601165
      509.36975706
      1365.63802692
      -567.87569439
      -563.69457482
      -542.02830906
      -821.43988497
      -110.91710364
      110.97051313
      -1822.79743580
      776.03511080
      24592.01916288
      20594.14297993
      16954.59298576
      8627.32778369
      -4038.37986271
      -10372.04107945
      9327.53083321
      19267.81792645
      5206.86928230
      9554.26218258
      2937.58740937
      5313.22981676
      9286.43463052
      4536.52627311
      3654.79449986
      9772.42669334
      8694.21867772
      7748.40310079
      6502.49031576
      4883.16958673
      2887.49468821
      4909.33254797
      1661.56379793
      5684.88324333
      6857.22598153
      5754.31060390
      4813.31902654
      4611.74648850
      2732.91958593
      4091.68570590
      3938.35423808
      1444.17135952
      4347.03128670
      1683.23407992
      654.76687360
      4784.39605922
      1966.08297059
      2795.57515722
      3572.73078338
      460.71432577
      2775.62090662
      2347.62143367
      1547.97922135
      4106.60490338
      2090.97290535
      2742.86249210
      2678.60008141
      355.16421584
      1968.78797201
      1720.24447453
      1674.20881112
      1201.07003359
      -174.01557389
      317.83497560
      1540.40719851
      22.76641999
      -214.12922339
      99.56772224
      -1254.89468623
      -36.76219639
      -1174.71958563
      -1203.14937620
      -1127.27881586
      -87.96052170
      -1292.40728490
      235.06143294
      4974.27056239
      6690.47986888
      8983.84068800
      23780.67449080
      9909.91848131
      1438.37350033
      7666.52907937
      5847.86359553
      8842.05085688
      11574.78033122
      4068.62953491
      4945.77679128
      11049.34480117
      3022.27514807
      5898.44229791
      9648.63669207
      9985.28324509
      11430.68109066
      7374.70548314
      7423.56320240
      3260.96129827
      4367.77028780
      2243.06651430
      446.83183746
      4068.72509505
      3435.66313165
      3771.56424225
      2123.60643663
      2633.03066703
      2696.07485428
      2025.99447702
      293.44935074
      2928.23834413
      935.27650867
      2292.17830877
      3322.15497422
      -217.13728678
      4507.72863649
      2756.36003550
      -748.29543668
      4203.97459939
      1828.53126911
      2046.83361646
      2647.82336202
      -84.63631093
      3535.03562516
      2356.86843182
      -786.79362294
      2623.99989513
      1167.16045984
      1577.79007482
      708.90067573
      -1169.27626080
      923.70167208
      45.52361463
      -799.04219679
      -61.92012795
      -844.82267744
      -1689.62901499
      -1456.43547598
      -1514.10705251
      -1124.53670134
      -1315.04590771
      -1197.56125780
      -1186.83414592
      160.33688797
      -6186.01586703
      1772.88123945
      5165.92831905
      15404.08529525
      14405.36611123
      2746.66282125
      10194.26365949
      3118.19698600
      9512.34909860
      5043.38743109
      11933.78550006
      1071.71729938
      7115.17247295
      9258.77181186
      3885.18354259
      4544.98490837
      6366.80332080
      3624.90940022
      6389.77270261
      1743.34352200
      -1271.40240287
      8246.81193584
      909.04260840
      5754.29119584
      6365.24902108
      -1435.41707543
      5188.11822952
      5428.71299157
      -706.80698370
      4490.68118423
      4362.79763232
      -2418.17955082
      3842.07649351
      3544.65834858
      -1836.59713207
      -573.13691862
      648.17858548
      -1508.99032240
      589.25842330
      24.32828695
      -168.25923496
      67.00777378
      -1164.15188317
      1066.19325019
      1250.47263411
      -953.73892263
      567.28152841
      120.35940082
      -749.05404495
      -677.54086983
      -1763.45090257
      -656.10586186
      385.36256495
      -1333.38324474
      -927.80859605
      120.61989234
      -1540.16274384
      42.52128577
      -1299.69704663
      -892.70121129
      -99.62934823
      -1185.87284232
      -752.76995057
      99.95567284
      -672.37785920
      159.52394391
      10939.03578040
      9551.04604600
      1394.89941094
      18211.69576463
      13536.90270983
      4713.79315379
      4341.22340296
      3466.37066730
      4693.53238871
      2451.96342489
      2351.67450959
      5353.75980056
      16633.06347044
      3349.34277473
      9814.55747796
      9288.90759508
      6916.96058081
      8730.34797951
      772.11771477
      6862.59615765
      3519.93032213
      887.81636252
      2942.31437280
      7868.71453067
      5976.33271400
      1859.50805825
      5748.73925096
      3180.77925197
      157.85813739
      4739.98983160
      3928.39192157
      -354.06597830
      4572.51258214
      3053.30113267
      4477.71255340
      1654.71479562
      2888.79639353
      4831.11019809
      589.16383199
      432.72902201
      3004.97177511
      2586.02535842
      1960.67653870
      3323.64697392
      786.65633864
      2675.79952526
      2037.20584359
      94.56664560
      1874.25377318
      689.81561140
      639.17042418
      191.09882057
      -1338.51608586
      313.84465527
      -621.43219429
      -425.38867419
      -931.72119507
      -1123.26128467
      -1167.85543798
      -1673.68121694
      -1386.77849631
      -952.76438286
      -925.31668035
      -792.45189194
      -603.22922158
      31.66555129
      17146.39155049
      17207.23084976
      -391.93542942
      17474.92521520
      14758.39710585
      4900.29403955
      7353.67086710
      5083.99451163
      2257.20877127
      10328.91628295
      5070.08909178
      6062.38065909
      7170.35644747
      851.24114783
      15414.12492061
      8682.34561838
      6708.44819113
      12163.98317910
      348.69952030
      4743.67155266
      6193.89660748
      -1287.03869891
      2666.87325993
      4147.62447532
      -441.47565603
      6267.96751240
      2981.44155933
      2579.23691270
      6414.03783570
      421.60083307
      3510.24995209
      2441.12395844
      1800.76812808
      2827.73244712
      4207.32613215
      2511.93803014
      3453.39515252
      2503.26147706
      2563.96910220
      1986.41542568
      4043.30153327
      2949.85441237
      962.01653975
      3505.57085401
      2308.48237560
      2845.20734685
      3185.80877884
      275.66667710
      2215.00386979
      1767.84380679
      462.01235989
      -540.74527085
      -152.12615249
      -230.52523525
      -598.61880186
      -381.74142604
      -1307.06304647
      -565.41966832
      -765.11481765
      -882.97608947
      -238.39225579
      -261.05510614
      -390.71251212
      -631.26838584
      -1282.52312123
      505.69634128
      16616.73331714
      4494.28027399
      3752.23602414
      7586.91952402
      13311.05352700
      -8118.36447647
      4796.16573702
      11592.38363135
      8008.60439020
      10296.02552934
      8224.59282231
      7546.56565248
      10436.29020135
      3098.84567342
      4455.34252191
      8355.38255629
      7600.98757942
      2994.35176832
      4767.98274308
      5499.94478854
      -275.45193158
      5077.12745439
      3880.83499698
      4201.30099290
      4058.51321059
      4339.80158193
      5901.43291673
      3712.08894934
      4199.36066456
      5185.83383406
      5431.71516200
      3393.90360573
      5120.19707341
      3608.15746405
      2082.11308264
      4725.26975867
      2701.72360142
      3004.89509040
      4009.55831789
      1557.95049824
      3610.47868229
      2259.18965767
      874.01650290
      3742.03117616
      2938.85216694
      2384.17961257
      2078.88589404
      1054.18338789
      1393.08799058
      1335.45708396
      695.10931372
      -444.72002802
      -89.46090088
      -418.83258816
      -856.94560222
      -486.46870443
      -1768.68031548
      -189.36448985
      -591.92461163
      -721.16657730
      -788.27086560
      -829.41851887
      269.22317784
      460.33102226
      -994.09858811
      152.27606706
      6569.07498735
      12355.13362533
      1865.42884669
      4629.51726942
      8785.65885653
      220.06111138
      8525.39157475
      6414.97985959
      6248.94926770
      4275.13752619
      3686.32736158
      9195.40633952
      9694.12801203
      6728.65801842
      7859.88132092
      6802.48981363
      7437.17442063
      9005.58844965
      3425.02724809
      7052.99051475
      4220.02742256
      5556.37489664
      1821.28540239
      -524.65535829
      6035.95750849
      3564.81501755
      2589.43303552
      3385.24926568
      1080.34548497
      5076.69485878
      3151.93902757
      -792.71394328
      5420.95572679
      2099.20038514
      888.51560827
      4585.83068698
      2253.35162484
      4143.88166701
      3148.95400218
      -367.66524187
      4813.71754007
      2761.80760198
      1492.86785435
      3672.28516399
      1166.47947915
      3198.68210760
      2646.93101319
      -638.84296100
      2063.85789716
      242.99451105
      -36.51030437
      -228.41230434
      -1629.62921052
      77.16308203
      -765.67861081
      -1785.14834904
      -405.88639257
      -1293.38959286
      -893.91635400
      -807.43743828
      -571.62416223
      -347.80801682
      -769.95214179
      -411.91233249
      -294.25570314
      82.67832328
      -13493.36181517
      1143.76210180
      9670.38843415
      15546.61662360
      9515.02761733
      408.64237674
      7940.66814724
      400.61089211
      4283.23471124
      5550.52326276
      11094.97663632
      4283.22155130
      9632.76922315
      11703.94575178
      1649.13361588
      8926.93575085
      8388.18948132
      243.59799921
      7249.05594680
      5028.39921040
      1547.21556512
      8321.05634400
      3462.92033759
      4369.41291102
      6036.49600209
      134.33580949
      4961.41214491
      3338.90769593
      -376.87308814
      3166.71511300
      3908.94586400
      -1281.57877270
      3615.25460026
      4392.93321111
      -773.45608826
      146.28802145
      1124.31126501
      -956.54385492
      580.27633890
      156.27116851
      -177.84072087
      388.57549790
      -619.35241095
      1013.29084409
      816.75494271
      -1146.64327139
      267.50014012
      -106.90513806
      -970.45319861
      -974.77757879
      -1436.42346179
      -551.40484247
      -85.83115992
      -1591.61541300
      -995.28872077
      -51.39968165
      -1793.53249595
      -324.92951960
      -1323.24287663
      -595.38016056
      73.23559850
      -382.08658016
      -472.70166812
      155.27869958
      220.63650180
      174.71780937
      14732.31072773
      10445.41024751
      921.22918903
      15636.36306344
      12464.74289526
      2697.76505741
      6528.38800792
      5811.92297456
      8375.31704229
      7986.57167453
      4726.30809294
      8202.18297553
      14118.82102272
      4732.83587026
      495.22090289
      9720.98372572
      5719.95754114
      3127.29205926
      5216.30190004
      3619.78978510
      1532.02795084
      4771.64424310
      2699.11210630
      3113.16717286
      3437.10540261
      5263.62879037
      5547.10902768
      2746.97939750
      541.55455433
      3353.66098273
      4075.25250338
      26.49570275
      3246.79110199
      1492.93736352
      1577.24186702
      3644.79873592
      1428.42435514
      2763.05336881
      3119.33005129
      443.58379000
      3559.71475047
      2653.33553247
      1445.08212009
      3945.17772816
      1290.75227827
      2498.47841446
      2107.73251070
      -146.36953093
      1379.06591539
      342.08940435
      -40.02737768
      -82.48548536
      -1297.74515783
      -229.61815924
      -650.33139344
      -792.33202797
      -726.18041453
      -503.77541634
      -897.57831057
      -912.01630132
      -368.06303548
      -462.45696746
      27.64976773
      -275.28265874
      -474.82619879
      61.86613479
      6822.81849628
      11167.59132443
      4775.17844359
      12642.40387514
      9756.54581478
      1003.06921228
      8295.94384441
      8147.58982845
      6225.51312082
      16252.64655539
      8804.51866598
      8109.11710726
      8559.24965151
      3954.06596860
      6503.94558945
      10723.05494269
      5852.05940743
      6266.59368170
      1257.37787918
      3618.46503247
      6017.85116090
      200.89389997
      6103.03564351
      2348.77050934
      854.21553690
      6703.01521276
      1558.09002824
      3818.88468191
      3863.07151717
      1448.25255559
      3477.21424466
      1737.92044505
      2058.17243883
      -170.58344089
      1362.19639686
      4611.25810245
      2870.20333350
      2104.24836889
      3211.74104853
      1166.56238081
      3419.53009210
      1850.12170760
      808.78110679
      4677.77952572
      2247.40157953
      1642.31188413
      1942.68661032
      -157.01207843
      1127.78547297
      399.85538399
      -206.16283307
      -131.95965095
      -151.69623813
      -178.59013951
      -61.03670655
      -164.18770393
      -532.78713474
      -497.37176875
      -284.31790133
      -409.38364591
      -109.41214905
      260.65304043
      95.42720257
      -204.19243462
      -36.87452371
      58.58376702
      5210.10645020
      9665.80417966
      4687.08693062
      4178.05109813
      3281.65004668
      8738.95849514
      3363.12655736
      9633.22896630
      5875.25926630
      11118.72665319
      8053.41400890
      -611.23177272
      8284.00779176
      2075.50429657
      1438.67360839
      4257.04015303
      4639.60738914
      -135.82715751
      3087.69884117
      1058.17893064
      4641.28850368
      3268.50809910
      581.92314600
      2344.78876750
      4008.10468557
      3282.32187989
      630.59792731
      1167.68358246
      4692.93553108
      2044.26880753
      593.45041095
      3447.91161353
      3450.19113333
      3372.44098209
      -319.37746324
      77.63121718
      2381.46589935
      2297.53321793
      2766.44718761
      1571.17420556
      2387.29477600
      3417.78970321
      -825.57172470
      519.23205194
      1477.32455981
      1568.83491120
      1523.54165956
      32.01034499
      1026.36633175
      990.72152636
      849.09006272
      -184.45692429
      516.76738428
      35.37530697
      -383.90177893
      -570.13806048
      -1095.26599313
      -71.25871479
      -371.27039679
      358.91278802
      -421.74263636
      -720.98325335
      -413.37704370
      -42.71712990
      128.07033606
      -185.09190014
      11609.39045828
      10152.10268800
      5302.04208836
      9932.67387605
      8668.92347761
      4866.32610081
      18822.16466779
      7466.72580259
      8249.94657149
      8098.41099394
      3020.70285109
      6082.17349292
      9318.48140419
      10452.41440164
      7714.31774750
      53.63524610
      340.72417275
      6411.82759436
      4036.49228701
      4514.76074246
      2893.57529829
      4315.83687996
      4365.24295308
      892.40266408
      4921.95918144
      4569.68335746
      1756.65610742
      4633.55973063
      -1301.44670837
      1819.75198115
      2928.31025878
      -952.08840987
      4494.40506394
      2331.48495351
      1346.89331513
      3280.42399482
      -250.38477475
      3268.77738851
      3437.04664793
      -1260.60850558
      4028.04247620
      3088.07204681
      2238.89459579
      3507.84017336
      -417.28292734
      2221.96220323
      2425.12103310
      -1277.97515386
      1772.20613124
      371.79410656
      -120.12805980
      941.80490447
      -768.63039595
      442.20299118
      367.83700072
      -999.53721374
      589.31089047
      -898.47276099
      212.81312611
      317.51640127
      -173.84469753
      -86.39993443
      -75.90054096
      -627.49502236
      -524.86549838
      -256.02813382
      6230.71473501
      12228.76519423
      4334.87999875
      11466.12075644
      10680.02621664
      7666.52982378
      8724.20338852
      4436.57995744
      4688.23915964
      8565.67056225
      3356.69095031
      5191.37775075
      5287.68542794
      6059.88204683
      5767.79152243
      3203.68260572
      9044.42522262
      1752.94426244
      10132.42473393
      6299.65952465
      -2621.76049934
      9109.85006086
      7484.09583739
      606.32618729
      4254.03766167
      3061.89594043
      5534.73130048
      5139.68527979
      -3500.91713200
      3966.01058440
      3951.08973106
      137.50386747
      1377.96276199
      1124.31515027
      3411.68735842
      1616.53486474
      1385.19908860
      -280.40451071
      675.10600240
      2063.70226437
      1078.45353059
      -1137.23132067
      3213.79731286
      2570.59298932
      -244.01852848
      -437.78126703
      252.79631265
      603.91098703
      435.38378728
      -140.59869548
      -637.20861555
      -367.56417253
      306.66920790
      -228.91559977
      -265.53286704
      -166.56826200
      -1060.13082499
      464.52636746
      263.19578751
      435.52185252
      -178.37083837
      90.70335520
      118.84000044
      -385.59621029
      -306.00690898
      -374.73798533
      20813.22890033
      5847.44477891
      3736.05700056
      13606.29328906
      8865.35781906
      1801.73043305
      1859.66792136
      2370.82788789
      7934.79822535
      7110.53214128
      3821.33485581
      2285.06287785
      3327.05423659
      796.84268435
      1666.19548937
      10480.38848472
      1552.07779489
      4702.54010190
      2575.90403863
      4284.75859141
      3215.27626109
      2948.15697536
      3122.69497994
      2290.17966068
      2149.05199958
      3292.58697410
      893.66871348
      1326.06829472
      -1854.34116442
      3305.56946572
      1698.16417981
      780.04751275
      1986.60652509
      1204.61797922
      563.43993198
      2175.60287260
      1492.52699608
      2274.92833159
      2799.29203772
      469.25347263
      3245.32868173
      3305.94635360
      490.69027689
      2913.32885892
      1423.54815691
      1618.78373991
      1755.19233960
      -1207.73299823
      873.78770083
      132.28675578
      395.04948857
      258.61980287
      42.12246280
      835.28454052
      338.10602196
      225.69096734
      78.74970930
      544.80215498
      409.94288855
      -21.35180672
      -571.45248339
      -500.32703582
      129.91450723
      -625.67712499
      -627.27548324
      -179.72007677
      15711.62710801
      9124.11369619
      2489.84880925
      8062.87628688
      9722.64444853
      1617.54858840
      10738.91677872
      4868.95528788
      5377.23343163
      7395.76817584
      6803.03847660
      12477.64901728
      3954.24612689
      5852.08174540
      10284.06979933
      4565.97366702
      2627.55008634
      4109.90349837
      5806.87422932
      5841.87820052
      2106.24383988
      3778.03672887
      4457.90170300
      2512.85368502
      1929.63274617
      1981.38825917
      1236.89987458
      652.59661603
      1174.16483437
      -195.78216151
      1689.66370603
      1679.95153314
      813.42868881
      712.20779479
      1171.58439122
      2110.91735698
      1823.06013483
      2175.23151872
      3136.52164518
      155.58199683
      2673.34492457
      2497.56762083
      646.45235304
      3312.71610277
      1480.96943876
      729.59241868
      1764.43694396
      -1329.66674200
      1377.80980797
      446.49810306
      -99.09782719
      1750.74187720
      -133.74707812
      656.93786670
      991.16592653
      -151.85413059
      1173.63358881
      -267.92637718
      69.89738771
      59.65773851
      231.46393379
      -347.56027565
      -319.83614864
      -968.77414059
      -447.86322536
      -461.57263469
      -12399.67380144
      -3529.23912203
      6039.45748549
      3811.61885907
      2643.72816712
      7665.79684618
      2364.33376225
      5899.13720475
      1932.03096455
      5632.25856518
      7125.02741992
      5101.18638336
      -535.92496556
      5792.59547818
      4083.11174638
      3596.37847821
      1199.59086306
      -753.24621665
      4535.41216105
      2757.76916981
      502.40242156
      3157.45547708
      3604.85818322
      1912.78954769
      980.31632411
      466.53020666
      2930.63785727
      60.08606170
      2136.14597905
      1869.00131664
      1223.02497642
      248.17189954
      838.74147073
      2067.37699839
      730.18346251
      824.82918657
      1400.06247055
      2339.21527686
      3038.60764348
      -490.55209355
      2342.88945829
      2591.44252021
      -119.20526654
      2009.13929929
      601.90925284
      561.61145977
      1313.92890019
      -810.18870231
      -1247.94773560
      222.92694648
      -490.70693980
      -150.46002795
      -456.53557095
      -998.74353963
      -328.50571841
      26.10806761
      -765.69838157
      604.11760205
      -723.42946849
      516.74462333
      -531.79162529
      -887.85925040
      -641.29621231
      -99.70451862
      -143.82738365
      -302.19144702
      15816.67631899
      10658.80272086
      2990.86434263
      5490.40676436
      4176.81887343
      5828.60902572
      5925.93029956
      6627.91795966
      9994.83264730
      5089.29341118
      2359.71804816
      5179.32953639
      4540.99111933
      7141.08412002
      5148.91926249
      4653.47850398
      6701.52626495
      4499.66003093
      204.04337877
      257.45720979
      3136.48247185
      2205.48379369
      5245.71177769
      1033.76947528
      1935.39305892
      2627.50580323
      353.02420518
      1461.16527292
      526.15502864
      347.17514443
      2032.61618065
      -1760.30750608
      2569.97183551
      1756.18630345
      -1645.94868997
      1621.82606655
      1165.97505541
      1210.75484718
      3238.67837758
      -874.46170888
      2575.62893491
      2854.34236310
      182.55522981
      2759.06538385
      430.57964178
      1473.46876890
      1111.76016300
      484.71703867
      1545.94755135
      -1370.23028687
      820.49680804
      536.91303310
      421.77596380
      331.31777058
      1295.90849725
      697.82252433
      1033.16578257
      734.10527656
      537.48394066
      -58.45226692
      393.36194331
      -609.13366214
      39.62699794
      -1008.92854368
      -776.72944781
      -291.87820235
      6032.84135124
      6886.16793095
      -6144.18884263
      11663.81633059
      6449.75244815
      6737.37894533
      4408.73967601
      5356.75396710
      6422.38333794
      6794.35202345
      3630.95708984
      4722.68135484
      2747.11384491
      3102.13279283
      262.51784709
      3050.23697009
      4848.57403389
      1424.39767779
      4359.63545362
      2961.99884799
      1521.51302792
      2801.33095263
      2059.12387100
      -607.58727749
      2587.87038536
      2814.44581952
      442.72643427
      2875.00145693
      2980.29428450
      -1957.76687406
      1063.00971711
      2144.41584414
      -70.61476763
      -11.29108208
      230.21158930
      318.17196698
      -601.17626619