<?xml version="1.0"?>
<VTKFile type= "UnstructuredGrid"  version= "0.1"  byte_order= "BigEndian">
<UnstructuredGrid>
<Piece NumberOfPoints="5123" NumberOfCells="5123">
<PointData Scalars="Pressure" Vectors="Velocity">
<DataArray type="Float32" Name="Pressures" format="ascii">
      -1952.59466903
      3207.96661221
      4157.97989376
      -35561.77368429
      -25076.91863939
      6989.17396293
      -20482.92742986
      407.30170189
      52.05080111
      -37979.07088609
      1730.68146507
      -24929.46055353
      -226.76237880
      292.78634944
      -24289.64383439
      -978.70321327
      -28172.76905675
      -566.86638821
      483.79658397
      -19896.22698744
      626.06600878
      4131.92719607
      702.45734393
      -2425.03215651
      -1068.51811497
      1191.19966868
      -989.28883081
      527.44830368
      587.29162527
      30.74315998
      -328.75629030
      354.62781767
      -253.59737017
      -575.40565696
      -368.90712014
      -805.24634900
      687.10114536
      -106.80137815
      -922.62320869
      109.49266407
      -450.37156731
      192.45500995
      714.50801901
      599.98808588
      -182.91904529
      373.47183039
      498.48400143
      632.87435945
      505.84562004
      -678.35363585
      195.54376298
      93.26833186
      1504.77505024
      1273.00950143
      511.62833729
      -611.83922250
      -682.64855290
      1041.82191338
      -939.02908647
      415.68038595
      -279.84515606
      -54.51102048
      348.36728807
      1789.22131723
      -212.47025098
      393.98748884
      3675.95822190
      4091.76758306
      2169.49179291
      2127.29027897
      -1182.77937838
      696.83600136
      1624.92782507
      1494.18100300
      772.77034194
      -798.68913138
      745.91925611
      325.10215221
      1020.12542852
      1240.17376453
      536.72318141
      1345.85584839
      5730.98134494
      -28.31483454
      2455.36105972
      -1134.54265966
      966.56596994
      1076.16154314
      -1719.30818653
      2844.29134487
      3399.54099214
      930.56537941
      801.85407298
      1197.59962272
      3.11148069
      620.31686625
      878.25294907
      -1197.39421337
      -445.73378543
      -1916.68853415
      -226.66414308
      -355.89286245
      -183.05331497
      956.16684953
      -380.38141065
      -1077.22052946
      468.71473127
      -1493.01710773
      -492.78387188
      -783.88002494
      234.86728811
      392.85299451
      231.25337916
      -169.54910092
      -2080.35996869
      -1058.01467391
      446.36438873
      779.10938939
      703.13794932
      1881.22953578
      383.92158208
      -1115.01989665
      -987.13279358
      704.87575527
      701.14054206
      -910.86511022
      -44.79751879
      442.81476046
      2289.24511535
      -615.22380823
      -1814.80474219
      924.72266922
      3506.58839364
      2236.34229774
      2783.91309265
      4314.32748199
      8088.46344085
      3760.50050441
      1067.93101440
      2335.57655083
      2199.54095162
      1239.57066157
      70.59731397
      -996.24266756
      1337.67325837
      1227.01769757
      -866.11011139
      1197.48254629
      5602.23021439
      2878.37592343
      920.14889134
      1526.01203529
      1984.03308971
      793.25063328
      -894.40026035
      2816.36963751
      591.58993314
      1311.64510450
      948.30415035
      455.58737365
      -769.97275994
      743.17746952
      601.74910798
      2437.90027154
      958.84559801
      2270.69243259
      450.04376321
      1138.90183817
      1695.04689935
      -319.67455752
      -249.85493249
      1102.65416588
      -2857.36691631
      334.86059042
      1918.11583593
      -2020.54253261
      1960.52500937
      -1796.18955843
      -385.27726743
      -4523.68758907
      -268.02418935
      614.55998017
      -915.93752351
      -101.68227478
      -262.28266309
      -676.01048564
      -249.91596294
      414.95269720
      -796.74377854
      -669.02345249
      -1159.89545893
      -668.09860650
      -217.93854085
      753.47855410
      -189.82614786
      -210.25690976
      -636.14892513
      658.65273636
      2306.43610716
      4549.35697109
      4160.66650573
      4641.86853581
      1560.10508394
      3402.91455837
      4142.51162798
      -905.95516621
      1846.70833408
      -203.53417957
      2551.36832648
      1881.82020889
      1321.81877223
      447.32057622
      3034.83821851
      714.81454513
      2703.96529069
      1238.65040698
      3385.29762422
      6019.25403164
      2288.00771685
      2237.34869442
      2833.86356858
      2087.37054567
      1017.37648877
      3515.21437210
      2510.83089185
      -412.17397734
      1730.84031236
      251.22218878
      898.82254184
      2028.39220365
      1571.48677435
      3462.13455344
      1566.87595486
      952.76485919
      1521.02012488
      882.89138723
      773.81517132
      -346.01993873
      561.93094634
      878.04842138
      2235.35461227
      967.76221156
      5956.82407625
      2928.99941198
      368.14639118
      -316.39398418
      -547.71465333
      1752.59731643
      -2017.89199934
      1456.51368840
      1604.54149404
      1535.37814328
      914.64555519
      290.54984514
      -291.66911480
      -2376.23024715
      1302.63874308
      -2174.07484644
      801.84700841
      276.00258205
      -1778.15876166
      518.08841446
      -83.14865939
      829.23550164
      5598.14904927
      936.54326206
      2213.74472968
      8136.70908475
      4915.25264304
      4979.95626855
      4463.81890412
      1704.76744590
      975.40572025
      1273.34504057
      2986.31360001
      3363.72840021
      839.46088297
      -3826.66007262
      1085.87925134
      -3432.25288852
      1485.66107862
      1308.20271666
      1131.90615045
      -1115.96764870
      3943.93406096
      3285.97533793
      1287.74082138
      1847.98141744
      1166.20706982
      4500.76582641
      1870.86154744
      1825.83383129
      1302.85861883
      3927.28918455
      1060.90972014
      -173.01070617
      1558.39244511
      104.87063628
      -1798.15472959
      -1303.35650088
      1564.79242205
      1017.47819327
      -3446.60721122
      2077.71143511
      -5380.37131838
      2257.46856600
      3257.10268995
      1583.69822254
      -96.71822238
      1206.87033771
      289.20950054
      675.74941962
      -229.71875674
      -300.75001797
      -669.50040557
      2025.72136984
      406.97260626
      2088.85269192
      2775.88411296
      1275.29544854
      1889.38214058
      -3243.29619561
      2163.80070415
      1047.12606978
      3393.26373676
      -2903.40714418
      688.41438727
      -573.32916423
      -976.92456494
      -791.04197784
      -17305.06999468
      5366.41042333
      3183.04625553
      1564.12718363
      4271.42997517
      3398.19478781
      4253.95949321
      1095.47093118
      4383.04956651
      1915.79686998
      5784.06230167
      3732.31255453
      4037.84468073
      1480.24838543
      8086.57978305
      5294.87481364
      3042.93949739
      2415.47645246
      918.66433494
      3527.27778972
      613.99517821
      -1.35134537
      -3674.73469267
      1123.47240655
      1546.45195295
      -2181.22154294
      2254.24959152
      1303.11027121
      4767.28023408
      991.02712092
      -688.47417590
      1534.34736292
      3680.86167479
      2182.89547163
      1663.48396723
      2815.58968985
      2245.25677626
      3285.50930446
      8473.09378098
      -19.88478554
      147.52495866
      -1131.55119098
      1776.24756713
      -1509.60775849
      1140.85566403
      -319.31942047
      2463.52836585
      3432.79042688
      343.36907570
      -1847.51944554
      -1522.44996378
      805.39892245
      911.28500548
      -377.00453745
      841.22388910
      1699.07247559
      -428.80877145
      -0.92906117
      -1173.26127675
      581.76659097
      1902.01265175
      2556.75622512
      -214.24172099
      1044.01276556
      -834.56269169
      -534.66416465
      -28807.02041058
      5129.45787134
      2565.12698500
      4791.89269302
      9060.86777911
      1530.48439668
      6974.33586309
      3333.64841879
      5445.47088288
      2962.39958036
      3468.54257800
      1450.83612173
      9922.54940537
      -97.41298533
      3612.55051030
      1657.46220504
      3378.64309963
      9.84151395
      11096.86187917
      1995.10111585
      -2112.38449877
      5100.08041890
      864.61302453
      2381.33522199
      2044.03732717
      1384.56039407
      9218.22396159
      344.58826319
      -2935.02789898
      2287.19809218
      8678.56607548
      297.56748346
      -4003.21264836
      1915.55330693
      -2800.28566038
      1679.55930661
      -179.63059348
      -602.75763007
      374.64346843
      -8201.48916885
      -3961.22424396
      2492.08256554
      437.40037526
      792.88735728
      2319.68236897
      777.71857392
      2482.48662240
      1443.30234246
      5214.05401978
      408.70081958
      1607.16144632
      -161.84512617
      -101.89422974
      602.88595321
      304.35691024
      1277.75560766
      451.77323132
      -2051.88407050
      821.69382207
      1977.64593686
      5136.22185324
      -423.30403358
      -2233.64260777
      -569.84325794
      202.07041867
      556.85567937
      9104.87543674
      3236.18125054
      4408.50607098
      2661.50285818
      3428.61635739
      1697.42496236
      2328.35703524
      3176.73708805
      4454.55237630
      270.91678041
      -2382.22639066
      6192.93132773
      2144.27592539
      6612.41932194
      5738.71810956
      3930.27134354
      6263.15460370
      -1653.31206882
      3590.49478474
      2740.10048736
      4398.73927114
      3781.20873988
      2816.92965378
      -1749.06061769
      4967.46570815
      2706.99670966
      185.15802306
      2259.28638732
      959.32559536
      730.99249349
      3019.29000289
      192.43758495
      2231.28409983
      5790.40913441
      2019.21085137
      1298.90842981
      199.89510765
      260.99502965
      403.40888955
      3399.76473692
      815.42671644
      -3653.91447494
      531.41510622
      1632.11636386
      1706.89938105
      -965.43529521
      658.03086972
      -617.15040876
      4843.37257922
      438.08246179
      175.80754449
      1322.92759442
      3389.08140026
      3819.53428382
      554.73920876
      -485.89424027
      -1792.18355705
      779.48582372
      2765.93878045
      2759.62162935
      1519.23714089
      1332.05761869
      -864.50988833
      -3211.06343687
      -446.52534581
      567.92732819
      -18063.76538625
      2725.29243501
      1954.09649284
      4197.11833098
      2664.36756038
      3805.67362146
      5339.29924297
      771.69690848
      4860.89184440
      2995.33467999
      4000.80418935
      -926.80097042
      6960.85844285
      -369.77311941
      652.64963989
      1971.69152653
      3038.97093424
      -913.10897774
      -3013.84773570
      3691.74804776
      2145.55447149
      -4747.23772791
      4286.39668691
      2143.27721851
      4819.49379136
      3250.43135416
      1543.75767954
      5344.44443508
      1528.41695368
      2878.84176325
      779.51799862
      1755.56000638
      -3009.16271121
      729.16436479
      2131.67389730
      2245.16949711
      3427.03183631
      1158.34214962
      -1664.21617236
      -5408.26067579
      1862.63621972
      -361.68408821
      2563.21769753
      -151.61873753
      129.70198080
      1688.21480145
      678.57603666
      2478.18874074
      974.08330614
      159.78180739
      4046.90850044
      1357.23930517
      163.26614299
      2144.40570836
      237.37818535
      2123.89232081
      -1093.32996844
      -912.26798334
      1531.20614776
      1732.26460527
      248.79711650
      1476.06470075
      -2163.75261346
      -604.22239706
      -780.54783014
      -1575.03549114
      -35532.71009678
      3030.90523548
      5316.51243791
      3483.91349856
      1748.61187307
      11741.24714199
      6635.21418864
      5234.21682913
      589.73144371
      1963.56945045
      3240.89518851
      2563.29478852
      2611.41054429
      306.37992600
      -1738.66799609
      2150.77959088
      5789.12945834
      507.71888082
      9456.07622550
      -787.02286489
      -3135.18262622
      479.67345424
      1196.42672751
      946.05188076
      -1702.15838507
      -1827.54253230
      259.14900032
      855.37273925
      -818.67249270
      3270.30754569
      -2421.67935504
      3543.02088692
      384.48774661
      -1735.68050816
      3222.05035338
      2662.51029333
      4898.21534306
      3526.26728925
      -201.57927272
      3463.56862614
      -1854.48571877
      -83.17707740
      2077.45295322
      3202.52103414
      2146.51992298
      -6404.97909255
      3579.77197480
      2021.13377422
      3075.77521224
      547.46598384
      2821.95631914
      -2676.11442716
      3129.03600883
      1911.90666808
      1694.68150756
      572.36387486
      951.88894166
      -1869.64067817
      810.13070561
      5012.02596350
      2585.54479155
      103.96087666
      403.50625403
      26.83431421
      -470.92281894
      -170.92623688
      -32327.05726218
      5577.35827717
      8034.18168018
      15242.10029476
      1079.06342948
      4406.66454852
      -220.66551120
      1103.99222390
      2461.35605575
      3149.14794763
      -447.00617817
      -502.36288035
      1941.37110219
      755.59141390
      2086.80773581
      3794.71201490
      1621.33164122
      4350.40059454
      3444.72721742
      1635.05474101
      747.39990643
      2909.39705182
      -300.87923080
      -149.13662060
      2003.16899336
      4061.47391495
      2871.30962746
      244.73092909
      3581.75455429
      2198.05879898
      2056.09447122
      389.43874811
      -3543.69234241
      469.87514198
      3903.02715168
      3496.51927252
      977.00585497
      -1585.25162440
      3856.73848675
      4356.87399038
      811.50850501
      4500.15918406
      -681.00276146
      173.60538560
      818.06609790
      2159.60894890
      2561.89695024
      4200.47602763
      3063.87860666
      489.15594532
      -1309.36203403
      818.18093959
      -1753.77797957
      2857.07666695
      -1805.58558169
      -3467.01856798
      2728.86973818
      -2906.44632612
      1531.30816195
      -1361.53998859
      -51.48441504
      2969.43537488
      -149.76967538
      53.47582220
      -230.24206349
      -454.32823037
      6949.52051000
      7095.19475589
      -1698.92698263
      6113.62306036
      1876.27715299
      3378.81863715
      7514.13895520
      3405.61163651
      1660.14544571
      3034.78022381
      1400.58880431
      2661.90857244
      2640.01886007
      4528.77820229
      -20.79739891
      -1359.27991179
      5100.14474055
      5724.07822627
      1600.61282181
      3750.95561004
      193.90999026
      7486.74096807
      4836.67383376
      3700.05926803
      2685.58929103
      -4655.20777634
      2273.64609047
      3460.15506022
      503.43739206
      -937.84414832
      811.03775594
      1385.36329780
      4881.94289554
      2250.58829552
      2115.02274995
      166.07413949
      149.97085998
      -911.07687159
      889.50020362
      201.12955364
      1175.45421564
      1443.64185898
      868.27957970
      -244.47023204
      1464.21215813
      1614.95242504
      951.63871711
      1883.44071255
      1796.48945633
      1679.43040057
      4279.16134526
      -832.29654669
      -1462.85786469
      951.82996252
      -577.65038973
      45.77764250
      2192.73309192
      325.97966558
      1123.17140691
      1152.70389568
      223.85385905
      -947.02712804
      1166.67624193
      70.46005423
      439.79651312
      -285.06925895
      4848.48907762
      7538.24088923
      4713.04380036
      2872.38346165
      10917.19230610
      6982.31783867
      414.44681770
      2169.39113998
      4181.68530293
      1029.38417695
      3223.37425540
      2961.62203460
      2959.38185889
      -147.40182456
      2870.87708522
      2615.74327749
      659.22552780
      3006.89502753
      928.61810424
      1945.54325657
      1938.81554754
      4245.94381813
      76.13201769
      -3208.50891564
      3881.36588983
      -214.44256936
      2639.00423338
      233.31157177
      2740.05427968
      199.57889904
      2068.65729471
      1536.31871014
      793.07145209
      2741.86330548
      2824.70238512
      1561.05919431
      968.67977848
      -1620.14949652
      1443.06536481
      847.15660192
      1081.20383365
      2513.72682535
      4530.57158675
      -1149.21730035
      -114.84063597
      4904.54837782
      1492.67706767
      -1468.23445045
      1512.81848721
      -189.16144522
      529.87081552
      1122.60226341
      859.52772153
      1212.32714797
      334.98800587
      196.42054188
      1128.92638715
      -1924.29987361
      2174.13342534
      642.64490161
      -639.42839510
      572.61779044
      -74.47166362
      -1705.49981686
      -1033.80097920
      -1188.68869955
      -16252.63926241
      4853.63769776
      3644.45471848
      6514.26671338
      1894.97345361
      4888.28325088
      2657.73656579
      2795.62851523
      4378.43617198
      500.80464013
      4739.46732670
      3679.26593520
      -169.53784720
      1415.44831056
      1608.02757942
      -185.06748670
      3165.10540576
      4714.98725332
      3433.09536576
      -1230.55103610
      -943.67065142
      1471.89014880
      61.11019724
      2038.20856114
      -1841.85435254
      -3539.78624861
      393.97175424
      4363.53998572
      2210.58757567
      3660.58214072
      3667.64991284
      1285.62152470
      2472.91833988
      -288.05334869
      3584.53349118
      1243.62488817
      4091.41627919
      814.72769117
      4580.19135069
      1915.55023564
      3260.92557581
      2362.21052202
      1808.00146102
      1641.16954520
      2413.49299120
      -1670.59945724
      2872.32183946
      1251.79508783
      3354.89453088
      -100.54824022
      2956.06610383
      2770.33520228
      747.70826779
      -454.83467953
      643.01122403
      -232.98140715
      -195.83635331
      2762.83645256
      -1.07864884
      -2601.72933973
      -2305.45911355
      -13.99072631
      -136.98403608
      590.16791779
      -1313.35720475
      -470.34279187
      -2726.23838959
      -471.97958953
      8907.36132521
      2664.79837311
      1462.60967678
      6045.41581822
      4885.64713511
      6250.97706026
      11079.69000554
      5173.28436868
      3387.24092304
      2142.35259704
      -6431.58945103
      -2315.44756088
      -2206.07352870
      -2817.17506309
      -3591.20124065
      6293.71672272
      3826.56093388
      7913.62406023
      -970.83170019
      -634.61750453
      -1029.09917882
      2713.66412511
      -2442.55315513
      4067.32513746
      1541.88310731
      3915.98390973
      2763.26642925
      1412.11613588
      4676.02344123
      3746.00064000
      -68.56053455
      1447.39707270
      135.93245386
      4471.70855473
      206.88889185
      4632.11752123
      -49.74724802
      -2219.86635126
      1046.12584182
      -643.42510737
      -61.85299019
      -2536.54047440
      3202.20180586
      574.44671564
      2230.65666862
      2464.85444884
      -1041.69674862
      1699.34564999
      3003.34823484
      -1569.31154161
      -108.93994657
      -130.60257244
      560.44993141
      1576.89729968
      1216.57527456
      -111.08203777
      276.48699189
      942.31076693
      621.93631436
      -753.82958048
      -883.46635405
      -795.49998259
      282.96782128
      226.75583067
      6623.34495163
      3546.49460847
      8353.39793190
      2074.46082379
      3296.94785802
      2890.98148257
      3766.20645543
      5732.54703959
      1739.23671807
      627.38580583
      -489.53776316
      7336.87643037
      4558.48129741
      2041.19822124
      3722.42572233
      7940.69113832
      1243.22644581
      5070.71987379
      -2257.02849831
      4944.98897292
      2893.81686943
      3077.72537984
      -145.53919561
      11250.15237285
      3408.54512203
      10027.44930378
      879.92357146
      111.08712762
      3314.84367808
      -1346.62652203
      2643.94178687
      4381.90828993
      1640.56493088
      -1353.47140682
      3439.27454795
      2560.25488525
      1909.10802065
      1481.30586392
      2598.38393626
      1126.15963135
      3653.25035985
      1733.50644309
      715.64965673
      2749.47869367
      5043.81732571
      1270.75198997
      5806.67547471
      -5548.18226980
      -5953.77909992
      1283.84295816
      643.71777542
      2308.03964208
      1496.83773251
      262.91631008
      1066.92470546
      1403.50737967
      1328.45198434
      2848.97195693
      2293.19154031
      1563.80399602
      1296.45341238
      1011.41139927
      352.02912170
      893.41020469
      627.09533846
      -1397.41242145
      4073.83366378
      3271.77734929
      7654.99170976
      7309.61249804
      3322.48994195
      3379.45875041
      4448.88903097
      2215.87999017
      5382.43523228
      4295.54416057
      10546.13575966
      2294.06916747
      3280.37971845
      2180.67970130
      6070.14128539
      2198.07772633
      7727.95100450
      7436.59937573
      4038.86696248
      8748.11903563
      3510.40988092
      6666.18095239
      754.15233366
      6984.99282957
      -5401.90883097
      3671.47051202
      4719.78409400
      5664.06628351
      9712.47493271
      2291.96623936
      4093.48280708
      10787.08739941
      2231.85177860
      5265.98140166
      3050.79512092
      2099.77995711
      6489.73357140
      2069.70521795
      992.06551288
      -1777.26495307
      3059.50222026
      -2777.35781812
      1594.84093992
      154.10077262
      -3246.22888422
      1718.89760815
      -2299.13242962
      628.54470281
      649.07939038
      1551.09137915
      1182.45411640
      752.20153362
      2665.27031181
      3051.04664494
      -420.41347912
      -572.00312760
      467.50548212
      808.23357471
      917.61452309
      1266.99084556
      930.16685932
      538.29291573
      632.91837319
      -1207.12627921
      840.00601756
      718.57874589
      -3172.63791038
      5384.62028916
      7088.61956622
      1100.86695605
      4421.79848486
      686.90938724
      6368.62859734
      4454.87145590
      4227.25099459
      2095.38088917
      2515.18928499
      4059.90378167
      5006.12550480
      2955.90730123
      11899.75255119
      9761.11022259
      2488.63955699
      9611.76120647
      5325.14331210
      2077.82663325
      2945.86947811
      1888.68164792
      8039.82025467
      2291.55187433
      2099.54756215
      10309.17989933
      3385.91437837
      7203.85892748
      8350.70742016
      3796.57182121
      2488.54164915
      3214.30965693
      1703.22311155
      18.80621166
      499.10896433
      894.37613475
      1213.00689660
      -1132.53025478
      2982.02071076
      6589.37175999
      2155.71913772
      3055.56332856
      3081.50116452
      479.67526176
      1278.31235928
      1575.56709918
      -789.61325479
      3466.52806009
      414.21502194
      203.28154117
      -2658.12967347
      -1158.30444077
      -849.77344175
      2000.43175065
      1696.07404655
      427.66541181
      -977.32941204
      1582.08452967
      1937.13614133
      1802.79886229
      1393.03968581
      1066.88267719
      956.11105714
      1299.16307015
      448.68377256
      1316.06060766
      7869.45002642
      -3106.65339760
      4126.93525684
      5146.42928753
      6944.03198483
      5650.72970401
      1609.03766159
      2484.85952033
      114.98049997
      5994.84801035
      5035.17025450
      3417.82559794
      9322.11236160
      3083.70189084
      3230.70431289
      3848.30204260
      5221.80884646
      5045.84017959
      2948.17297482
      5796.29932414
      2595.98502138
      -5843.77609120
      6287.45508509
      10605.65365179
      -3840.40894191
      5798.61300154
      6231.51206008
      3699.47263503
      3633.94922711
      4902.07230724
      2714.09625181
      2443.65420017
      3452.02621195
      4267.21192640
      4360.93615514
      -102.87916099
      4446.82400871
      463.02651086
      -615.85830577
      9753.75452407
      -896.73798091
      648.81966335
      2515.78929678
      6666.10878151
      7936.47974847
      5547.78987692
      2823.12298815
      5153.71975905
      106.09245887
      -4592.41280801
      -144.42492235
      440.15362613
      1800.66059313
      2032.28190827
      2086.32368329
      2757.54663228
      -1077.29950176
      -2203.46895250
      1234.98858548
      -1732.72057840
      -801.02524060
      943.12947048
      -200.28963825
      -1330.98281009
      7654.69127829
      472.51110638
      11330.88049207
      2239.15782361
      2788.44116664
      27161.58804274
      1776.86843857
      8067.82397490
      1310.92349936
      13104.88240933
      9250.99268543
      4527.28649078
      4158.60665271
      2034.85101717
      8694.22899759
      2874.40039950
      9451.35249689
      4045.38956754
      2145.69726985
      5963.49173046
      604.29925909
      4637.16632264
      4331.49549428
      7381.51214213
      5280.18477944
      -285.74069335
      2114.22315729
      1394.36754786
      549.13410438
      6645.45554875
      -98.91166954
      1961.26196995
      -2248.52514927
      49.89173095
      402.66028610
      1631.48394599
      8204.51665968
      6772.64023521
      4982.88388580
      -8370.96287742
      2584.82919944
      4053.70095290
      2964.05116061
      2833.95191355
      5397.26723628
      -846.50595303
      4395.73294625
      1084.20344258
      1823.00696836
      520.63821089
      -50.38527304
      184.82118696
      1918.84549389
      1887.73108588
      13155.83747425
      5768.08945666
      649.47294046
      1561.67978642
      1248.78771862
      -235.71266201
      -1205.83696661
      710.94431486
      318.51931233
      -2125.10185517
      -1944.14010844
      -2790.13257879
      238.92177505
      2036.46393964
      -3381.97879396
      1254.96891770
      2970.91664557
      2673.82681808
      4008.98948809
      7053.53162775
      -605.98297223
      3249.93609933
      1836.91922930
      7661.77543618
      13488.41136720
      4178.35420196
      7771.05499539
      6617.83538641
      10678.43331810
      4095.29854944
      8265.73360783
      1339.30854693
      -169.18304907
      8231.84349999
      1939.98573353
      2273.79902759
      5068.92271361
      7173.87078771
      5262.02168546
      -325.12542583
      80.93173731
      -614.45627719
      66.97095258
      3403.21096436
      3582.61500080
      2331.79889518
      2278.21683468
      2583.11063217
      9438.64615315
      1562.48270851
      -531.88909035
      3020.53348148
      -503.67411799
      4887.77455797
      2652.48111178
      10042.80443793
      2781.71341903
      -597.44204852
      10893.89158970
      -2190.75768698
      -1038.48932268
      -1279.93072287
      -66.07102307
      1249.80365567
      -5625.68875916
      -218.99583464
      2197.52662999
      1366.71113882
      -366.21432968
      758.17400894
      848.49525978
      -714.71795613
      642.25301763
      1354.97273261
      -201.31282262
      -2658.37863685
      -2411.63285694
      179.86360456
      3301.17192676
      763.09223223
      -19965.59071168
      2538.98154875
      1528.68766144
      5567.57278393
      9573.46700037
      4675.10692836
      3550.32400930
      3608.31723544
      2163.03609196
      4307.60419515
      6834.86576978
      4675.48974897
      12162.60627366
      -2059.31398253
      -14054.40768317
      -3083.34686848
      5829.30624159
      -1747.05659194
      1642.18451790
      3962.78736982
      -18855.73570081
      3787.12006593
      -3516.29367702
      7752.62863976
      -1763.05998510
      8230.48397192
      8938.35202330
      -1575.86566260
      -1295.88913600
      2934.23472707
      -600.69298272
      -1722.25957725
      2509.56621722
      6506.17650514
      430.64296592
      -1077.69835865
      2317.55269374
      -3166.01216603
      7715.54985875
      -1473.25530737
      7491.75988198
      975.87699758
      -2500.07995192
      806.07543618
      -7630.95853863
      -1600.49838609
      2637.61402038
      -1060.50276699
      893.95007454
      1475.14558786
      -6093.03394839
      1518.16024705
      1707.16717978
      3177.88770030
      -242.33824638
      6511.44242516
      1009.28902018
      6512.15275513
      -1246.69384319
      1187.87743773
      2401.03898022
      -22.09790927
      73.91969925
      2042.36654649
      -553.44319643
      1686.79933730
      -20679.69231914
      761.70299026
      849.79664525
      1321.08467930
      6035.35112823
      7985.14178543
      3116.31024901
      7084.99729864
      383.25435227
      2589.71302602
      3016.46837517
      -997.58532155
      -5153.93560341
      2083.84591380
      337.02260186
      -1018.85900641
      1738.71529418
      1331.16780117
      4757.76351919
      7115.02418271
      -519.06666289
      2825.52906472
      -14686.21343887
      233.98769212
      -1239.43947710
      1792.07233236
      768.83443731
      -3480.93351101
      5016.62418366
      -2704.96372700
      -3473.12154698
      299.14209775
      -1341.38231544
      1782.94586112
      4834.20052408
      4041.69459179
      3118.34428290
      4327.46030509