<?xml version="1.0"?>
<VTKFile type= "UnstructuredGrid"  version= "0.1"  byte_order= "BigEndian">
<UnstructuredGrid>
<Piece NumberOfPoints="5123" NumberOfCells="5123">
<PointData Scalars="Pressure" Vectors="Velocity">
<DataArray type="Float32" Name="Pressures" format="ascii">
      -62.65420552
      -16210.42219155
      -21651.66053847
      -35561.77368429
      -25076.91863939
      -2799.70038356
      -20482.92742986
      13714.14673454
      12473.91034127
      -37979.07088609
      21763.41139330
      -24929.46055353
      -14296.10910784
      8661.75720949
      -24289.64383439
      10406.50864762
      -28172.76905675
      11990.99026776
      8307.29580530
      -19896.22698744
      14424.78565614
      7575.61805975
      -10248.91861546
      9078.57804419
      5785.73975360
      7580.43584839
      4849.34327418
      2532.80388679
      6591.80167398
      5481.60373862
      2726.19907531
      -17658.17017690
      4374.84832568
      7271.25119856
      50.52488985
      -2861.69555476
      1704.97841914
      2629.68100460
      2262.60486760
      3832.95508527
      3027.43194926
      -7.12450913
      -516.02086853
      -2868.21243297
      -1630.73925930
      1153.13046421
      4647.88127230
      1258.70261957
      -3474.11667961
      -5418.02983121
      -2274.57128770
      4120.90620511
      -3081.09262980
      -1260.09449587
      -3274.49264646
      -3050.93997298
      766.25507545
      -1800.97641667
      -331.70370447
      -35.84012578
      -1102.30269796
      -1065.72807261
      -44.22401282
      708.98087776
      -613.89199585
      287.77243174
      5864.24025916
      14271.51293449
      12405.10133257
      6229.97606244
      5141.45339180
      5716.25511270
      3960.88339921
      9835.42924759
      4151.58425867
      7397.22554662
      2578.80352952
      7489.33081680
      3968.10610286
      2992.82600654
      3221.52785314
      2220.19986800
      5397.64860051
      9498.29032199
      8952.01747028
      6985.55502126
      2010.06967312
      6684.60676547
      6208.09965296
      1968.09997732
      4082.94626786
      3335.88643283
      1414.78845420
      5646.06252101
      5633.52629722
      1305.08951278
      4901.53059953
      1324.11467886
      798.77986169
      2425.45581098
      2913.62478732
      3347.91827363
      3965.57244768
      1795.91535103
      6370.91177985
      879.41958158
      -51.00418933
      1021.81418040
      1002.99998018
      11152.86610923
      -14793.09087290
      4182.85035160
      2067.02612370
      243.00397227
      1463.56234716
      906.39545903
      940.15301395
      -163.22693753
      1057.66345659
      126.35374068
      -6395.68610179
      10409.27678661
      3510.37896860
      -3475.22512109
      -749.93647027
      761.56437323
      -1080.00816254
      1403.61287653
      -177.82507451
      -598.65986799
      455.92216415
      472.93905005
      5388.19507965
      4558.97536537
      12532.26663381
      4577.56296546
      6683.11545516
      9768.18134728
      11228.74534134
      15191.10214786
      6073.73315530
      5798.34603727
      5577.21175846
      6499.98473885
      950.06692501
      6097.25137295
      6306.88337549
      2479.71037902
      5894.68240406
      2574.59350963
      2250.21218226
      8282.18436398
      11211.57385084
      5775.51694321
      8553.02404041
      -2034.07019067
      3707.28674056
      8140.76431638
      5675.61341595
      5308.11380379
      2025.19037304
      3760.08178617
      5371.47401923
      6490.91911433
      8254.98873638
      1750.40119671
      4945.65197334
      6269.63946554
      5833.93467289
      4136.85002564
      1006.14635197
      -2556.55105811
      3221.37304715
      3017.10542194
      4526.61655968
      4633.81108517
      2580.02584573
      -2658.08627615
      6208.69873539
      483.49241069
      2174.56212112
      1782.33767086
      3458.09142095
      1491.29851087
      -2808.56901680
      527.98847145
      3563.41546973
      1036.58304282
      21.14449274
      4562.48340475
      -2169.27541524
      2046.41497170
      903.38396351
      -1851.18706159
      408.35538458
      2488.37580805
      -319.35713178
      105.55190462
      6245.92616905
      5580.56128169
      4262.58991832
      6762.56744567
      16038.11727635
      2635.43477173
      13150.26344272
      4977.06901080
      11292.08925646
      2820.42957194
      9588.64251445
      20604.81837516
      7578.83887145
      6193.81763442
      4982.41352888
      7176.77885891
      11425.63220493
      9752.58309511
      8695.90111875
      6914.57885534
      2698.26788162
      7400.64884547
      12366.66895086
      18419.44287768
      6555.13309414
      6754.84708028
      5008.27465570
      4735.48900740
      6543.40832228
      4692.59089103
      6771.76384256
      8792.11912439
      2596.01211624
      4920.37488429
      4688.25950537
      10417.61567482
      8448.50852850
      3200.28524060
      1338.27310845
      6430.69156308
      4544.69645459
      4836.19744191
      3740.95228230
      4228.00981685
      5511.32818081
      975.98197272
      2935.33034708
      1763.75368062
      1601.65673303
      6132.01056471
      3824.33343403
      -2240.34563117
      1412.11741624
      4095.33377671
      -375.47551050
      2010.70422585
      1089.26701355
      816.49644119
      314.66969659
      865.25823483
      193.54292968
      1132.41092000
      112.59832914
      -3018.03323441
      1464.40580630
      -66.69618739
      3418.91549003
      9749.66396786
      24323.09116005
      31286.35192820
      8029.46043596
      26218.05327648
      20586.63650282
      19118.08151057
      4381.09469073
      13642.26290599
      5107.08471283
      4736.00910997
      9223.64123047
      3867.41641356
      2246.94245322
      17387.41895941
      11969.07321954
      6232.84549163
      3467.90936397
      8459.34162594
      8395.79494512
      479.29124631
      9743.85263435
      3674.61733834
      13346.04800284
      26223.98999738
      5353.08150106
      -529.19383288
      6367.09287373
      12021.51970994
      7187.51440421
      6872.52696080
      2762.19216396
      5912.12263201
      4823.32317844
      10806.62502055
      9917.54950326
      11655.23588949
      7628.10179079
      367.13497287
      -750.19004204
      8350.40026789
      4228.32918922
      2041.39182408
      8112.81091704
      6916.63751692
      2674.30317779
      4294.31646434
      2054.64666454
      2543.91993268
      2602.51572566
      1938.62852186
      2868.97683449
      3306.00688197
      3028.13328127
      4873.46199936
      1311.53707389
      -10.62505610
      1575.42660179
      2545.50401818
      -786.70615739
      1904.21387715
      2100.70853315
      1400.73938008
      1014.49271103
      771.36522912
      -17305.06999468
      1716.95639334
      8986.33964522
      2033.90110962
      15143.99002629
      6908.04936712
      7616.63251480
      10132.80492842
      13696.06994911
      14440.34539465
      14562.95758711
      15100.14130311
      -8638.22178183
      9080.20291279
      11191.63494259
      5680.20534803
      10136.50648617
      15689.76702109
      18781.42824716
      9023.90490089
      8932.94823220
      9293.32955741
      -5408.95619822
      9186.89070522
      10041.00193017
      5108.68913487
      15569.24658561
      6885.82564633
      11239.27818932
      -2110.49155343
      4604.98401224
      11955.56722717
      7943.67699195
      11517.69236243
      7493.21817803
      5964.00548228
      2126.49089569
      1854.37624022
      5519.83866656
      8926.41176502
      6312.52381137
      3498.42976203
      2947.12187469
      3684.23322067
      6439.42670140
      984.43297202
      6188.35823060
      5129.93273385
      2587.13581694
      3157.56818846
      6221.74675211
      2862.56372693
      4610.63873191
      1206.18323069
      2666.49717745
      1280.55245978
      3592.35712735
      3585.12639335
      3637.62997435
      266.65846370
      1160.14290140
      3185.99638330
      2454.78852511
      54.63964391
      509.36456367
      -1937.09582124
      -28807.02041058
      3667.49969671
      9489.38544047
      6293.72016846
      7479.14568919
      4413.76835875
      2146.02753118
      3211.96911205
      10120.93833051
      13787.13848529
      13674.97075060
      7055.51774616
      4103.22211006
      3286.66045842
      7006.64415675
      6009.15484659
      -169.85024397
      8804.06995464
      -303.84943031
      19683.02374348
      14394.13239744
      4373.06638022
      4555.31421898
      14626.44119821
      4361.32489449
      -3016.90579139
      7136.22761820
      3906.59040463
      12525.49305465
      4288.62040620
      7135.69118337
      4606.35696833
      5096.52886112
      3623.09321510
      5044.30778509
      11255.91800337
      9667.79004221
      6354.93906218
      2722.76890822
      2745.19700498
      4855.78466341
      6479.51816751
      11699.68662933
      8359.20911776
      6628.60782325
      -1354.47413136
      3925.33946187
      5489.99121681
      6322.84744893
      8061.04173999
      208.97346451
      2278.77837530
      3778.52167289
      2827.18246468
      7365.36846269
      960.01110792
      -60.30234232
      4407.65141318
      8980.26853085
      3830.10900009
      -1573.79352317
      4312.48692769
      2093.60661246
      -174.19409746
      -697.79829354
      -448.46061533
      11185.31992153
      14742.53750815
      5277.27809407
      1318.81787032
      3356.80299705
      3858.82007159
      28805.34139230
      11846.44345732
      32281.19311981
      9221.27323892
      6504.92170635
      13056.68038823
      1772.18745432
      7351.77107431
      1339.19386527
      18017.64256626
      1393.70995702
      7403.19327421
      7678.21127033
      1098.32363560
      5946.10460844
      9829.37625569
      7004.60960536
      12294.88813825
      6888.03386927
      -1106.30338137
      -1453.60623285
      8362.68312919
      7138.70104171
      2808.91416824
      13623.91909364
      6591.14403200
      10245.45714934
      6143.90272811
      7216.35645504
      6189.21212808
      2977.38618298
      6019.47157931
      6164.21001891
      6176.18262817
      10891.55610546
      47.69389182
      3948.22610866
      8678.13495787
      12194.57882721
      8065.10687031
      2873.48264166
      3115.16793176
      10832.17804670
      3492.88318558
      7994.32981020
      3947.01357991
      3582.71479783
      6063.95600639
      2215.46829360
      5379.28939983
      4531.84015420
      3509.18949348
      5363.91906148
      5864.10680148
      2476.23520499
      3486.91951926
      2854.22089711
      1048.94180455
      862.00961483
      467.57518323
      -18063.76538625
      5610.58863254
      5603.94750473
      10598.88778686
      6808.43512517
      3217.22569346
      8904.52245641
      10353.37538034
      19019.45261343
      10661.46066639
      4312.83423256
      11205.92334826
      2000.85225379
      8738.07651473
      16654.46089972
      12224.48074318
      6225.26105382
      7037.64576475
      10993.35198735
      7230.26022695
      8442.89350011
      9189.99218765
      7750.12874082
      16922.62631304
      7025.75852153
      7981.39610117
      12977.25148760
      -1188.81582548
      2019.84895188
      3259.01217293
      18352.44985309
      7908.77296589
      2545.21981070
      5037.94568245
      12049.17209338
      3971.71136788
      2508.37467387
      6548.01431579
      6204.95518234
      5807.47374616
      10577.91901442
      4701.37252496
      6008.60757525
      2017.78581780
      4230.27993646
      9279.12866368
      5854.74352316
      3232.55053124
      4846.93732376
      10125.26200085
      2466.42727576
      8285.69049047
      4948.54756003
      2509.65834230
      4318.13746463
      4558.36718580
      4805.51424583
      702.38829855
      6980.57697451
      4641.95554565
      1385.06870602
      2269.11242255
      -48.24389894
      1545.94777102
      -1295.77087923
      2283.62590426
      -35532.71009678
      15357.70557986
      17964.70834548
      11131.58027015
      3193.00371394
      8342.60245057
      17234.53470834
      17370.41806538
      31825.80061380
      19346.66379174
      5118.33062898
      12969.97247234
      5580.06505467
      9909.26781526
      8341.47366722
      14373.59302892
      5932.89308486
      18560.55137923
      4488.39460640
      363.36875745
      5001.95220872
      2643.24441136
      9908.99263497
      10092.70987626
      12452.44358373
      8779.87995378
      5447.81638348
      6885.15561029
      5373.37483911
      7093.97337805
      4583.33272879
      12760.28349690
      8014.96926375
      8272.87042205
      8709.39116504
      9787.77641134
      7696.24975658
      888.18608546
      3944.64469215
      5243.95067834
      12250.11641994
      7957.15718669
      7763.75244269
      6508.78417314
      4768.86601726
      3540.12591867
      5047.01301102
      5491.09826505
      7188.54670112
      1889.61496407
      6553.46740662
      7068.10010864
      6159.80721247
      5801.44984461
      4040.43270157
      3702.64324288
      4835.41210167
      1694.96486605
      2435.61274933
      3155.91092861
      1906.27983483
      2821.94661991
      1479.27848983
      2695.17680821
      -2422.53234936
      817.24908019
      -32327.05726218
      26143.46246836
      11124.03426049
      12370.93466416
      7728.05628506
      5890.89461942
      16624.52188146
      17710.49525014
      11501.13019276
      10721.80251598
      7022.26753586
      6179.23257064
      15145.80045276
      7913.94360654
      11312.13598073
      9507.01007446
      11319.56694433
      2614.08390241
      11899.98565596
      7010.70828727
      638.30636936
      12903.90741478
      8586.29448614
      8097.92142855
      3469.77481830
      14215.34549485
      7239.95688960
      3823.47839044
      10476.87806104
      8806.34677536
      4627.78708820
      11122.08929792
      8527.41295861
      14344.04037796
      12320.56136237
      13732.49041567
      2721.43118015
      8642.67474574
      9167.89875827
      6817.04329790
      4150.19250831
      2579.83321838
      6617.04780341
      4646.62785916
      8088.59249394
      6732.61413810
      8152.88505209
      6539.00944026
      3722.52462286
      4335.27266019
      4988.11699999
      4684.67539473
      7060.75958987
      4502.46853359
      3143.51418398
      3998.23980341
      6321.61849335
      3033.51765646
      2060.40878542
      831.67099369
      2627.02736072
      4185.42469897
      -169.41152567
      1511.24832808
      424.09743121
      661.23507514
      18509.09513072
      14256.28017672
      10838.27557700
      16840.69476704
      15153.82361673
      8583.92634251
      1859.27173435
      17691.11132425
      8794.92189820
      7844.55035778
      15306.23816082
      3648.84441627
      1220.93371674
      5554.58406071
      14057.11502014
      13025.84949145
      6351.83847995
      14512.19844798
      7639.03340458
      2133.98007623
      1883.71028928
      5419.83657228
      5850.50169881
      15063.70618111
      9567.74704368
      7927.94754176
      3911.28581849
      8078.60133745
      6489.65044062
      10797.89450178
      656.34760586
      4411.00363289
      7635.32666337
      7730.08111532
      5715.62884484
      7433.27540448
      14457.33627002
      8464.83360192
      5964.08844864
      4745.96081803
      3822.94819036
      6476.68346080
      5488.73358886
      7067.90911541
      4449.58182276
      4717.69312453
      3028.55094500
      5905.68310847
      6103.06440821
      4798.50997319
      5865.42643800
      5590.84635306
      5818.16890318
      7784.25356170
      4766.84576489
      4888.67447650
      5059.48118756
      3567.65797829
      2993.62333833
      759.80586495
      1757.74067793
      948.02818763
      1543.60397667
      -373.40352710
      219.28160918
      -1141.52469028
      15131.47051420
      19579.36182383
      10784.44870771
      10696.11880017
      7704.78595255
      16816.78184129
      6642.50017428
      21169.03956868
      10620.01254947
      -2994.40097510
      14607.93948120
      11077.60132547
      1003.27343597
      12365.86986975
      11897.53328866
      -1162.60697243
      12183.60741785
      3975.24284689
      8557.01230260
      9607.71349643
      8594.39311825
      6866.87697537
      3819.90305927
      5765.62642284
      5899.44310153
      13088.98503632
      9335.36497394
      5274.73372814
      7712.24769810
      10640.32306485
      3340.57518507
      5442.15998622
      8247.73777725
      11812.96813110
      319.46469675
      8393.66247615
      5848.45901721
      11456.26845107
      4509.75627168
      4118.09029471
      4358.09498261
      8310.90193163
      7060.63400211
      5982.17124739
      3611.61393625
      5290.69387893
      3619.31888071
      6879.39009163
      5945.68492553
      4763.69086571
      3580.09949912
      2793.55556364
      7461.63107441
      8691.18726517
      2756.53543919
      735.17055858
      4266.01707872
      4606.94002487
      2227.81874723
      2301.74773497
      2935.73741523
      1535.33422116
      -528.14677844
      2008.94114483
      46.76732448
      1594.31174069
      1575.30612850
      9424.58282006
      8584.69902329
      7474.81785427
      15183.81172643
      6722.02319324
      17435.21102434
      30126.98258068
      -1244.60279166
      7806.15447300
      9454.52472100
      1327.81713129
      3651.17415376
      13757.02407801
      19364.00574384
      17302.58032461
      6782.24029365
      2198.72097469
      2613.88821919
      10767.24557420
      5115.46724222
      2222.01375916
      6041.44932068
      9829.24513614
      8006.66164595
      8251.85674774
      8371.19309647
      4449.45448703
      9354.31435853
      8116.45873546
      9631.79836307
      -612.13394613
      7905.49607834
      8195.55539582
      8332.02553801
      6457.46671277
      7285.07515024
      9211.58697450
      -502.91063731
      3139.19175026
      6657.94041097
      7656.23741048
      6734.95098347
      7382.24573537
      7135.06873156
      5776.68158903
      6427.92173032
      4525.38457338
      5539.86781409
      6164.06359208
      8400.90741612
      3803.16485735
      2097.81750017
      4358.23187102
      3318.93135903
      1035.72989007
      2094.07689793
      974.72615655
      714.46145447
      480.32419646
      1962.18987172
      2610.22642769
      -905.43956501
      -1540.75629589
      -621.63996552
      1483.53069541
      22118.81285028
      14209.94826580
      9760.83301470
      11586.25401688
      14151.60979074
      11792.65812218
      18994.39362330
      16500.57620771
      12866.46627668
      18178.51953827
      -1640.64640609
      12810.49153075
      12368.60003040
      9749.44486176
      11299.09154673
      13414.98682067
      10419.45927729
      -5793.54760077
      7755.31699113
      9629.96238675
      4724.81831831
      6532.45913439
      3125.74077520
      4973.41849476
      7656.71308400
      1518.19359365
      12734.24998393
      1685.59455563
      9186.23463451
      5793.60428697
      7053.88356205
      358.00934061
      7029.28910302
      8962.56181211
      8032.36057321
      7503.67690603
      10607.20651196
      7449.75097289
      3433.79089087
      6842.42837173
      5305.84973929
      8327.13358599
      9559.68559693
      2709.35648719
      4727.35006273
      7663.50537658
      6810.81033391
      4884.06178201
      4642.28676099
      4652.30108110
      101.05245317
      2160.85514118
      8050.82678380
      4336.72312733
      3121.84027596
      1625.14660988
      2550.62338967
      2304.99795630
      2169.21135175
      906.20418171
      57.35250310
      2802.53881200
      2384.95830705
      -3393.73604490
      659.98394299
      -1335.62008088
      9962.36972124
      19036.31970660
      5847.84228682
      3897.26050864
      3743.90607425
      1072.85289757
      25233.51797716
      11479.33768137
      -3743.46116045
      -10046.22994509
      5207.67880966
      9498.88517790
      1749.62541975
      -6679.86553641
      6735.07020621
      16030.57845308
      6478.72195280
      6996.88562112
      4059.05538433
      5381.02242999
      20520.00469566
      5447.77150934
      3720.15825844
      6175.47465598
      4180.79854220
      4884.52458798
      5250.31889881
      10337.99009297
      7718.24173467
      8000.97228723
      9342.72937353
      5882.57203617
      7788.64313207
      329.27441029
      2744.49395196
      7571.46495149
      10268.59377830
      3251.13900971
      6353.78635261
      8905.68010523
      2755.45637770
      4020.63401372
      6896.45720332
      2124.93676449
      2102.65586723
      5683.58796077
      4832.03758776
      2175.53429719
      6265.44608340
      5859.96045468
      9964.54821215
      6731.41780546
      1252.57983694
      2922.21230761
      755.73283682
      -235.27698496
      -2551.87826392
      3023.29482178
      2803.05882651
      2378.45776179
      1266.23446129
      1823.92866288
      792.21378764
      -2942.92952557
      2097.07049221
      607.35705800
      14695.08336032
      8773.01595772
      4687.28787247
      19373.36387742
      2343.01091291
      -1959.22459288
      1648.39849630
      9531.18114330
      12816.26302719
      -5433.60063615
      6044.65511695
      5171.71930752
      -40.45954433
      9344.48600462
      7583.16749651
      8567.08208295
      4002.37367166
      7977.66949918
      6046.83615797
      3971.24264590
      9526.04121443
      11053.77624300
      5753.13071940
      5109.40863834
      7735.98733088
      12941.53842071
      6666.20508832
      8442.84900987
      12730.75966923
      11544.25278093
      -1193.57943991
      -747.23427637
      7819.75452891
      7932.84653851
      5222.66807117
      12838.75620145
      4425.90882536
      7117.14368602
      6654.39738401
      4872.49422877
      -3016.88824931
      8503.02132101
      6505.27477380
      10954.71753257
      2898.57242706
      9673.86306164
      4608.17379695
      3394.53788033
      4928.13820838
      3995.55498610
      7716.86587210
      7190.49806775
      1920.30334364
      2475.85852636
      65.30538328
      3381.30959527
      2567.11140308
      671.54592524
      662.60567802
      2446.76716939
      486.44455485
      1327.29367639
      544.15331764
      -2066.21000493
      244.00950805
      19.16455500
      9910.88329374
      9205.02882226
      9610.53297016
      -8060.69444132
      -1803.35243780
      28152.55309211
      6471.54072355
      24264.28414374
      8714.96745078
      10385.05768379
      9814.69962363
      725.44361681
      -3983.50877977
      10341.25641060
      117.85870752
      -1931.81427745
      16638.22015222
      2262.67305621
      11511.95056634
      2412.92745388
      3043.16004380
      440.59718629
      4546.59445499
      3634.67880436
      6027.26688843
      1002.99133413
      7843.15916396
      3920.40698577
      3431.60789510
      5330.58709926
      6571.53228934
      6172.42609443
      926.64243427
      5377.05988693
      7804.42653810
      9331.89545110
      3896.64602836
      8932.48246349
      4894.44944209
      6431.18255816
      7144.39082685
      4823.84641348
      5897.47326980
      6852.91639386
      5348.36364607
      3449.85723974
      5113.97515373
      8393.83735402
      243.73932855
      2966.60371235
      5313.96378881
      6039.61178787
      1559.68224002
      3821.40241548
      -315.08477067
      2286.06592670
      4050.12285521
      -28.05161440
      489.05508603
      3454.24955831
      170.95300474
      395.82085221
      1446.94184490
      -2954.90237421
      -173.94671164
      1189.26375996
      24.07280976
      12595.95826730
      15504.20579139
      5826.64881418
      7993.41480616
      1147.64051075
      233.28524473
      -1683.53107529
      1688.48809964
      -2125.04074028
      9249.66320604
      3615.87793835
      -6179.51873788
      6623.15929205
      4934.32488669
      -5338.80290949
      9632.52377562
      6825.89329086
      6735.08340494
      3908.96557453
      8198.42794215
      7705.59468170
      6105.75934047
      5830.88183300
      615.67827339
      3976.81350942
      3456.52901392
      1656.43661100
      1717.24559961
      3235.56396690
      4703.98339193
      4245.59147001
      542.61005147
      2079.94683450
      -1764.14482209
      5427.84993240
      8640.02995116
      6213.48454871
      3549.62419404
      4619.57432847
      2752.83402064
      2948.91673736
      8219.54785862
      3621.64982109
      2789.82096301
      4380.89901195
      1789.38317968
      5296.48795262
      6852.32074587
      -1955.83711222
      3655.03476994
      4136.34539756
      4767.07338301
      454.91809960
      -1140.79085242
      4346.28072033
      4162.35032724
      290.15204646
      3016.49874931
      778.27113452
      1990.30460560
      -1081.63136288
      352.11352664
      -2404.22618159
      430.52540667
      657.10511593
      30500.14389241
      4510.76691346
      -877.51355425
      16366.33522752
      13846.98584187
      -3647.50461475
      -564.31425656
      3272.97990816
      11013.60399931
      1553.07244649
      6620.36903939
      18715.43633609
      2830.43753661
      -989.47986698
      2845.50200897
      4359.36093616
      8885.60364744
      -6876.18997605
      -480.97620470
      18273.57107112
      7939.12909819
      -1036.49086686
      2064.21789626
      3289.00461396
      10621.65188485
      6017.79613092
      -3741.42077073
      905.20670569
      -364.33619817
      5911.91359731
      5110.48826484
      3589.25150300
      4440.31219834
      -1470.16237707
      8869.27782628
      8214.24803428
      2469.18304265
      5315.41255984
      3821.25081406
      5822.39866859
      4874.31271920
      5455.85272288
      5468.27480080
      -1435.66747235
      1048.19063868
      653.99219372
      7692.20206785
      4208.40172567
      7523.73039688
      2668.81342696
      1069.82980395
      2672.77945107
      3314.98508543
      5109.04484897
      -1861.60785319
      2198.74244032
      432.25735912
      -940.26969015
      -1334.12599597
      1135.10460493
      2097.07919174
      -1964.26772373
      5064.66823984
      -1413.32437185
      -2010.28650755
      -1898.47232190
      17518.16998048
      9642.25974681
      9058.58534338
      8530.49338589
      7815.14703476
      -428.43685444
      6189.44107753
      -1829.46085560
      -795.60142005
      -710.49858357
      276.24816591
      957.57796449
      11755.41801643
      1263.07848987
      -12149.68478196
      5959.79035887
      8508.93896869
      -3600.01376573
      3306.77896533
      11342.78911447
      2740.84076351
      -2537.63558960
      2347.49018292
      1922.22117936
      6829.78130247
      3647.04246605
      1092.76026532
      276.30373999
      -3350.33118841
      -2158.85779644
      1431.53368847
      6807.88903133
      10215.32446891
      2517.04914837
      701.56924128
      1364.61802999
      8088.27946783
      3823.60613475
      -3946.59769309
      1898.22371898
      5417.90651812
      4136.14535007
      3474.18091410
      6017.35582559
      860.89829601
      3102.87661736
      2261.38996492
      4117.32361259
      6348.90178507
      8041.61453960
      1745.90755912
      269.19914749
      5458.13414120
      2445.38892455
      -313.28678174
      766.25101509
      1355.08868130
      2310.15581506
      1267.95989986
      1339.06849390
      1816.27191769
      -835.42747783
      36.50010942
      -504.83480272
      -1591.96946386
      1307.06654987
      -19965.59071168
      16141.81928091
      20434.01474094
      8871.29173116
      6555.93691857
      3658.39651119
      5850.26491678
      3627.44941586
      -10248.63475449
      27135.50499143
      3717.40168536
      -2357.14455531
      881.97770673
      -1820.68379264
      1850.23891794
      7903.49084300
      32.68346798
      3101.63998353
      -3075.29371247
      1970.17007314
      9456.74876367
      3098.24540910
      5379.66368844
      6284.45172789
      8961.33781830
      7415.52425200
      -2247.62883690
      1696.54007203
      -290.17654579
      -851.80532365
      1454.78782241
      4999.43745061
      2070.42890062
      9869.26065190
      2361.08770301
      2764.17708472
      5388.94740199
      2936.20926559
      831.78958509
      -2712.42336347
      4394.77369840
      1035.59372007
      6886.89885381
      4422.30848547
      3828.77270129
      1117.46212983
      -335.08491251
      -47.15873900
      5169.88767743
      952.36153565
      3538.45315915
      3039.74644623
      1845.14504473
      4452.66083137
      6403.22398774
      1128.46678179
      1149.02793818
      4555.93493439
      2967.63778965
      -646.25718307
      -1188.71568186
      1115.22822517
      2958.92152984
      -3163.58994084
      -600.06109497
      226.95001610
      -24423.61733027
      6656.20931292
      7460.63082449
      3199.99859085
      1151.12712178
      6803.46068227
      3390.94895500
      4512.40995774
      1378.11867600
      317.16007812
      2566.49798215
      1585.88463036
      8489.24423354
      10140.17938592
      -5786.91423045
      10540.78830801
      -2307.18944835
      -2783.85837497
      -670.23182455
      6874.80783334
      8499.29303953
      2136.83867814