<?xml version="1.0"?>
<VTKFile type= "UnstructuredGrid"  version= "0.1"  byte_order= "BigEndian">
<UnstructuredGrid>
<Piece NumberOfPoints="5123" NumberOfCells="5123">
<PointData Scalars="Pressure" Vectors="Velocity">
<DataArray type="Float32" Name="Pressures" format="ascii">
      -1297.42859075
      -10705.46608277
      -6415.03619213
      -35561.77368429
      -25076.91863939
      -86.48233796
      -20482.92742986
      14370.50811071
      17629.21280512
      -37979.07088609
      23557.42486182
      -24929.46055353
      -15048.06577505
      10430.72998488
      -24289.64383439
      9620.55105887
      -28172.76905675
      12018.00106802
      10502.17342063
      -19896.22698744
      14767.15545241
      4983.11564800
      -7118.11880154
      5681.79803259
      8963.14660728
      8220.56095050
      3623.83162626
      2916.65663978
      7444.07827025
      3123.38439129
      -481.48354517
      -22816.22661161
      91.48813691
      8738.83820766
      82.63567226
      593.10478126
      -1113.22426987
      507.62311609
      -8704.53441977
      3096.38044168
      7135.75500271
      -4046.43190080
      -3144.93507325
      -593.71661910
      -782.66689737
      1919.62816074
      884.66983266
      -541.04759852
      -564.13484069
      -1062.37206913
      -2815.20005198
      3671.34321070
      -1110.32456980
      -17.61665629
      -4103.00285618
      994.87121967
      498.41379862
      661.99760170
      -589.80784127
      1902.81494494
      605.12452426
      -1123.12989703
      -944.83891633
      1179.49419208
      375.48411427
      -606.74371666
      12524.39320000
      17716.08415895
      18127.74786895
      10998.41538802
      6543.89333790
      4288.40588564
      -1889.33506260
      9838.79670336
      902.11896962
      4883.74095068
      7412.45912757
      9087.12224160
      6921.22824947
      4027.31909000
      4367.37191137
      3354.29264600
      6030.26003374
      8334.81186288
      4147.15515379
      3962.62853552
      1915.25436525
      4241.51819974
      14612.55753495
      3744.59377892
      3078.09694357
      3023.92818895
      -3916.46446939
      3372.09008150
      3442.02297723
      1873.74727098
      1664.30327301
      4580.31502302
      2657.62618325
      4109.84930682
      6425.64901742
      1939.92256667
      4362.48233438
      -2577.71644661
      11054.01792996
      -1816.38885417
      -4252.11503654
      2449.75616859
      -102.03238119
      -784.01510114
      -4305.98327400
      4538.90709818
      3291.26612192
      -5246.11638031
      6182.67190279
      1640.88039796
      -7997.15551632
      2776.63941973
      3401.54772822
      1064.11797385
      -4098.57551498
      1040.59147472
      -955.83315162
      -811.55354521
      149.51247197
      -1922.09135365
      2505.49363130
      -1047.46588033
      -865.27759389
      -143.81089541
      -1052.95816665
      907.17645617
      4508.69811749
      4504.73471935
      10758.46602175
      3616.67407362
      6033.67761527
      9008.27102067
      10626.68533142
      10523.49314773
      9132.21805323
      7322.89058381
      4975.87933181
      3615.44888648
      6654.68989109
      7212.69707243
      6954.69934254
      5766.94531590
      9361.49966892
      -143.69744705
      5412.08202713
      10854.24455732
      6643.50472729
      5636.63656200
      7276.83036951
      2627.18342606
      5483.74629250
      9494.06681123
      9838.41291103
      802.61622882
      5801.70572420
      2071.26782338
      4475.70990412
      8769.07576581
      6442.79213299
      9387.37439846
      4775.66498320
      2341.74729089
      3773.09005643
      4289.91216064
      232.25838013
      1889.77365049
      2639.70500849
      3653.16911835
      4523.37461443
      -3184.70087055
      2161.65163305
      815.24272819
      1109.89148291
      827.65652742
      2025.05676358
      1222.12471655
      12627.26461205
      -3932.19011891
      -6901.58706624
      5175.81954948
      1500.34479495
      -4967.68917902
      1505.31886634
      410.15573610
      -3817.49636913
      -2750.83072936
      -3459.79675247
      -1231.16947767
      330.15657795
      1315.73285168
      -130.62254868
      -404.42746976
      11384.21898756
      4143.21864246
      4751.71689389
      9811.46585043
      13784.41612443
      11496.34295792
      6600.08166823
      6461.94279458
      10855.33010196
      1360.58003473
      8745.51661197
      15473.56447642
      7525.71174911
      5976.75958728
      9211.05204294
      5064.79081895
      10409.96851731
      9260.26162077
      7346.74591928
      4685.17976377
      3543.74063358
      7173.32373532
      13173.61361740
      16222.96549486
      7099.67536350
      7269.05450412
      6868.59823252
      301.46200478
      8215.31522745
      5451.52534903
      4438.27436761
      5797.01898640
      4339.17103933
      4068.94110797
      2116.82377494
      6487.09092102
      7813.82849615
      5664.25111351
      2866.65251817
      2987.12986172
      5128.12062758
      3061.34404938
      699.00082626
      7366.18380788
      6178.13690158
      4864.63976509
      -1285.12099669
      5096.43070743
      5192.06414863
      -1983.03501224
      -1697.77823446
      761.81477414
      1384.59703188
      3268.57756588
      -206.70140601
      5912.32180547
      -3206.34765455
      182.92203873
      1840.68071963
      327.85223386
      -764.21371993
      -239.00065594
      2753.15737497
      -2508.69946797
      -463.54387883
      863.86069102
      13815.94114241
      6074.25608976
      30189.73823737
      19984.64186628
      9338.62937593
      17430.16516475
      18597.40508483
      16966.49120241
      6386.49858251
      13440.95815654
      6099.00758530
      5987.69406875
      2932.07467487
      7605.70092216
      14755.18592322
      7285.25139137
      6606.99844674
      7395.47217747
      5936.98836856
      8409.35263636
      6063.11143059
      2005.40974658
      5906.01093281
      4241.98889108
      17052.82535945
      18772.74795617
      7230.97104923
      2275.20155661
      7380.31620593
      2761.58482481
      9702.55109840
      9083.48303080
      3241.46996759
      5035.41882664
      6274.58559820
      2560.63720382
      11545.92421378
      9163.85376129
      10081.62485930
      4894.65783376
      -5177.36682089
      9728.43190674
      5070.42520468
      4324.21698099
      8199.99459534
      3562.00570274
      5721.55917944
      5671.55678636
      3196.29429926
      1156.41527768
      2560.33262006
      1945.85706678
      7709.69265983
      -5635.29697049
      5147.27614377
      -535.42777702
      3041.16434174
      4260.07288799
      -2241.13288916
      3287.16621741
      72.73012272
      1825.31722231
      -1033.96423425
      2923.09052782
      -1469.21253081
      874.65515014
      -17305.06999468
      12495.05513997
      11649.78139993
      5295.27514649
      12595.16847878
      5040.39435297
      7499.79341303
      12420.49388066
      14250.79801588
      9588.88239921
      10762.51533820
      3664.62575642
      1441.03710954
      5922.03622188
      3356.69038131
      5490.74704150
      8737.55698576
      4738.86816204
      7887.26645166
      16467.75098197
      9230.58708634
      7449.82021482
      5726.97075309
      16914.03148474
      12616.85531287
      1694.84800053
      19182.13349002
      -1259.22631985
      13812.07060162
      -2625.77515488
      5423.99318874
      9637.97697979
      5710.24106044
      5941.29303119
      6670.96908574
      2684.63139102
      6284.29915240
      5380.39618845
      4868.80463090
      5076.24468389
      -2758.11898909
      1069.01055768
      2626.77915255
      8858.91785203
      5442.01561795
      773.79680471
      2585.64088070
      257.80777747
      8344.08295439
      5567.39892196
      4658.28269923
      1020.85111382
      3799.95055258
      4474.20109703
      4980.48063564
      2029.08326515
      2966.63153222
      2844.61466849
      1635.63011459
      2829.99690669
      1600.66536301
      2854.94881261
      1818.21084038
      2287.26326659
      -2248.03428762
      1400.84868252
      -28807.02041058
      5908.14066743
      10342.58010111
      5738.71798397
      8504.82311461
      5457.85669728
      3191.90265969
      3664.92649896
      11155.10073974
      15683.54575175
      10950.79653865
      10809.69939550
      4695.02647805
      7558.18377972
      4026.79319347
      7950.92434153
      6717.45826933
      9619.26211092
      6150.03671307
      10861.64218266
      14625.32512992
      9820.58771249
      10710.89300480
      9057.46761110
      4670.42037918
      6447.21205958
      8883.31262302
      6664.30728746
      -483.64938984
      10098.89228420
      5690.72462138
      8241.72023452
      8350.84304099
      7484.69330385
      4779.16862519
      9452.42732151
      5056.45037674
      3084.43752560
      5580.43086588
      7746.55062400
      6563.97634580
      1693.05794352
      7804.20777832
      2848.62598706
      2569.27161673
      -700.56711978
      4842.70884788
      4394.45823002
      1386.92360315
      3844.70945330
      5568.71681256
      4988.73464726
      2598.29518113
      5468.07444039
      3447.45506019
      7072.84278908
      5133.37640445
      367.35472818
      -613.97263291
      3994.20920725
      1714.35204500
      6007.65825638
      1578.72057888
      3749.65189054
      -1699.15309611
      1029.73255499
      11755.00778485
      14034.02215771
      6421.16110690
      2416.41883933
      4022.37300302
      4131.45111967
      21417.96971483
      7865.80297234
      21403.63432078
      4584.19901654
      8104.53142873
      8105.64937632
      1550.30795308
      9340.27416785
      2057.96767194
      9696.22017708
      1954.15058690
      13887.98349161
      7541.36503960
      2772.78415747
      6789.11283064
      8694.40319494
      10758.29186451
      5050.10757251
      8378.48146222
      2609.92549837
      4991.20051701
      6938.95661088
      7212.50685695
      10446.25672115
      1594.85863588
      3797.90684276
      2877.41412967
      8853.89892231
      5622.56831714
      3863.78619233
      7375.27886313
      10239.08254251
      -638.71584462
      1399.24947038
      4672.45831793
      5878.02774071
      7043.80434990
      4952.64915007
      5178.94223478
      642.42506697
      3448.46488258
      4940.76821849
      5437.84151435
      7124.13255335
      2140.60054984
      1914.08360522
      2721.90162735
      4839.11016736
      7823.88669532
      2343.30555385
      6114.83257605
      2476.64669450
      1731.91238167
      4890.77257142
      3636.20023348
      549.94554799
      1493.13525521
      3792.60505087
      -910.35379365
      -399.79073082
      -18063.76538625
      6120.56795663
      5331.86473081
      11040.17224161
      42250.23104644
      5620.42086504
      7619.24333273
      6479.58920204
      21520.00066373
      7191.22725912
      8809.13393639
      10054.69076260
      3990.28343858
      4069.27522295
      14461.94434196
      12306.35237868
      1491.46183688
      4200.92304092
      16051.63431757
      9653.21038981
      6660.52758727
      10003.46394510
      10324.57401699
      7110.07824394
      5703.85108746
      7039.15432184
      7550.02571693
      8170.16805002
      4598.95493553
      9110.04054051
      6700.19368764
      3343.37796953
      2827.01370144
      8073.72266131
      2827.59261057
      8856.94245030
      2665.20340227
      5295.65940150
      5696.64294462
      6566.36001686
      4896.42347253
      6003.23856465
      1857.77729838
      7746.97180398
      6449.49057696
      9922.72485024
      -1995.67392866
      3579.81524230
      4662.86788172
      6583.50700654
      7797.73147953
      3298.52397501
      1323.43700239
      1047.28132065
      4848.79141391
      8600.44898269
      1342.14612325
      1752.74631617
      2431.71697384
      6882.63973379
      5993.90080755
      1758.79338133
      1538.87197350
      3795.16037762
      -2033.89366442
      -405.46488166
      -35532.71009678
      13165.95341949
      16085.64072704
      14110.58933597
      2853.11234433
      6612.14232091
      6350.89798146
      13331.74320933
      27379.57153776
      16607.30773777
      5570.61772125
      6405.38373441
      3824.68187616
      7195.78561443
      4726.13218681
      11692.20073492
      4052.50062625
      17055.92232003
      5310.35708686
      7704.38043039
      -2469.94627786
      2502.06961920
      12295.99097310
      9526.05582750
      8528.29941878
      9958.03291229
      2671.52037994
      5679.73507169
      11015.46722550
      7150.50201452
      3393.33224667
      2659.78743307
      3194.20706488
      4317.83811438
      8026.17887276
      7121.09865132
      3944.56622859
      4222.89857725
      4159.46668593
      5652.65656998
      5027.53153119
      5619.40736508
      3369.92245619
      4746.49865914
      7151.49835193
      2733.68166246
      5222.24391209
      7536.63394252
      386.56248172
      5845.28017703
      2867.34705489
      5756.63226626
      4949.30410226
      1312.93020884
      1935.03346497
      5994.77008150
      5056.08568601
      1447.71874698
      3526.44415263
      2666.27762694
      2349.11825066
      2787.79150611
      3755.18681158
      2315.35005655
      -1857.92039119
      -1188.77273374
      -32327.05726218
      11277.27357303
      5777.56679829
      6934.79211674
      3686.07772551
      11783.15593066
      10298.48233521
      9453.20001672
      7877.21797324
      18889.74969629
      4068.72719363
      6407.48854451
      12968.11780278
      5202.00985386
      5889.56322630
      9260.90074407
      7962.65724381
      1406.16731126
      9078.02972298
      3609.46512815
      5252.94899458
      7627.41959098
      6110.85633695
      10803.01342545
      1192.66070466
      8421.86421478
      9476.09670656
      1850.22133249
      6524.58577847
      7071.02496548
      5965.82981468
      4147.41343956
      29.01604142
      2509.89701324
      8784.38815149
      9147.60560373
      5859.57332969
      4581.47427460
      4177.01898146
      7138.03328340
      7556.60118369
      7325.57204718
      1316.47046046
      7424.75203902
      6544.43002807
      6777.62074400
      4635.56587839
      4199.45338464
      3116.54064019
      4329.10150442
      3923.08579623
      1117.03625796
      4431.86926727
      7122.05513551
      1575.66347106
      3789.19013931
      5590.54619030
      5173.92806327
      2348.52061452
      2325.79612080
      4733.28150093
      2573.84116384
      94.66072907
      -570.71624832
      969.77053452
      1711.89298608
      14097.83650160
      19334.33910853
      3338.53523396
      14305.96633546
      12544.32327568
      9817.84715129
      22405.74150446
      5681.55575459
      11569.75863669
      13518.20915423
      6480.07443729
      6805.02777603
      -3837.02325542
      6792.86691196
      12603.62085735
      14279.62782470
      820.59538153
      8433.65648668
      3351.22988768
      5247.68554331
      3714.63154540
      5061.16697716
      7286.08112160
      525.07985856
      6396.09164624
      7934.13468851
      4420.25865167
      4167.86912248
      6513.87398696
      2199.01812186
      10538.85956746
      10184.92851158
      5340.91373364
      -1909.33684572
      4807.02063306
      7695.76113897
      6907.05196984
      6380.50054858
      2222.54788230
      5321.03288622
      6211.57105323
      622.19056973
      2632.00687153
      4996.38086771
      5687.58581498
      5182.38053119
      7375.51922824
      3081.72040322
      5257.61362454
      3838.39409483
      4975.00299693
      4365.23637914
      543.05794366
      7150.67448442
      1457.39544467
      3417.02971095
      6921.65307094
      3674.09502748
      3219.53586614
      2199.98391778
      4706.20751821
      2300.74526926
      713.70903606
      2235.62623333
      1222.44624536
      3058.43081181
      16008.80108384
      14090.23592703
      10398.05030339
      3889.14688426
      12053.01305261
      8259.89522223
      -44.63891948
      10411.50845090
      15353.57834498
      2434.96967346
      2910.01382765
      11166.25554700
      2859.37281981
      7703.46739414
      6695.93546365
      4362.07499057
      5284.95755971
      5985.25533635
      3861.31524992
      1322.24040077
      9002.80578308
      3552.96009034
      4090.73946698
      1989.06378507
      2372.84328790
      8254.73143757
      5874.35355110
      6820.64743772
      8947.04803192
      3731.51197397
      4723.33766815
      7339.43022812
      7580.76733663
      4003.98208525
      2871.28013673
      5705.53998114
      11041.04148714
      8304.88379193
      6095.48970517
      4713.39292110
      6915.59863901
      9176.25886184
      1291.98117425
      4751.52165736
      7389.35519569
      4820.82614078
      3061.61936226
      3927.92481136
      4036.55034578
      3959.46795338
      4212.66558613
      2647.11879362
      4000.73907893
      5692.87115215
      3691.35324612
      1762.15378470
      6021.88655979
      4310.13735328
      2524.79612281
      3999.69964760
      4550.07833115
      1438.67932402
      1668.60357020
      2000.51948173
      562.76565393
      785.94571524
      1724.21491534
      14968.76367643
      9219.80037038
      14676.32267960
      2444.33747460
      6935.60102395
      10881.52374046
      6283.96711449
      6323.18336163
      6152.14051614
      3807.66272069
      6254.47617477
      -518.82987949
      17824.87199514
      -725.45478093
      17885.16826444
      15284.17090395
      12760.24499331
      -14.94716072
      -4348.92358528
      8324.25901724
      8541.05178260
      6905.13327434
      3318.58178867
      2027.77114270
      7282.15760797
      4165.74388732
      6234.65477090
      4018.68161965
      8486.16294679
      2821.51486979
      7661.97225098
      5479.62992397
      6615.26450175
      5062.49314593
      6646.34723837
      6722.56371689
      4275.54909174
      2461.01313308
      4667.34196972
      7349.97803527
      7737.56070557
      2516.21893861
      5678.92942642
      10174.70921494
      9219.28965242
      3559.76941556
      3682.88853978
      6165.15536513
      3052.14357388
      2569.78760805
      4140.01663640
      5735.12414550
      4542.18764668
      2603.32942019
      3009.38851275
      3234.29703531
      6672.12029257
      2661.66861753
      1243.95508988
      2655.48554552
      2380.32479184
      -2285.44488689
      -343.80201656
      -279.00028570
      3540.41927142
      11812.91938881
      9364.92185868
      1547.67138781
      11680.32003956
      3085.31106654
      -7116.69682754
      -8399.85662723
      6133.87199327
      14442.20338848
      9942.86687203
      10972.66142538
      13295.54542353
      -317.25085449
      9165.62816592
      8053.77802537
      -2475.16601695
      6364.27716047
      2726.65721824
      -906.46186650
      4989.02489772
      267.74146472
      13726.42485579
      7657.72604631
      5033.42298804
      8942.43695839
      2463.10299960
      199.70325519
      2580.79376165
      8883.80901200
      9485.01253447
      2575.15314837
      2503.65084534
      7279.60127902
      6283.06611085
      4531.09045141
      1292.30531224
      3274.21867019
      5099.62408677
      6935.48217798
      5913.70967461
      247.08501621
      8601.48891686
      6002.91426423
      2240.05955326
      6521.45543357
      6897.39899861
      3182.93549997
      6461.05430375
      7648.38698634
      4284.70260338
      3826.67672381
      6051.58511512
      3780.38851106
      5049.31404326
      2499.35897528
      2576.05544398
      2068.25650485
      2059.40410921
      4878.99881513
      483.72901347
      -753.40388531
      2065.67106987
      2651.95285755
      -1873.39065178
      1113.88736095
      -970.91137712
      12632.30578770
      20285.86147863
      6605.36711243
      2539.29578198
      4661.81838026
      7113.97397542
      20058.89967968
      7373.45567125
      -10795.20048775
      4363.20035025
      455.22871948
      302.16794611
      5397.49239928
      1025.43479636
      1963.76002605
      5179.04292301
      7223.65019880
      5259.60347340
      1162.79999304
      8462.33350557
      6228.72765267
      -4743.74470125
      985.02489832
      6193.38075508
      7618.32524482
      4562.58681247
      5208.75371589
      10264.71110699
      -1730.48858972
      4501.91847931
      10269.61624856
      5362.50565977
      7165.95430954
      3056.07109127
      8805.68010989
      1227.46537104
      10481.15524302
      2100.34309570
      2332.31074588
      3657.24112505
      1649.71724405
      7245.04051469
      4231.80996100
      1912.54693359
      3174.60630959
      3479.21395672
      8244.29869980
      4554.29807282
      3384.94838313
      4641.21143475
      2719.21142108
      4554.14306514
      3738.16052691
      3528.05923273
      4238.79058442
      4537.17658207
      2369.08631041
      1797.51839481
      2040.41835450
      1495.71646862
      -325.14559479
      3186.49762967
      3238.23795598
      -5915.27862401
      2575.54935955
      1518.66896312
      14233.36554308
      -400.93701250
      22200.20134790
      5603.61847549
      12506.34706090
      8832.99053027
      -2204.75623879
      4981.66269556
      5079.19955573
      10112.70783443
      14760.87800897
      10589.60791229
      5309.80633895
      6361.62204316
      -369.83404173
      4198.25926516
      4229.92827047
      10784.49100580
      5652.93329430
      8247.74828555
      1445.95234770
      6104.19277833
      -1656.29546061
      643.36314731
      5001.11026852
      5297.52343708
      8459.08449370
      3184.52416770
      5463.04765479
      8262.15318673
      8334.69765623
      9339.83863906
      6359.74663462
      11002.17464869
      8003.89716497
      5722.36098319
      1692.66769391
      1245.90975388
      3076.60993258
      7288.03184381
      5368.16780585
      4959.75130452
      5087.97266416
      7508.08612192
      3749.67705269
      -893.12875576
      2490.24639885
      7730.84098990
      4343.81568843
      3583.73305487
      5974.22281266
      2637.86773889
      3601.75645230
      4373.47513437
      6114.09846381
      2291.21481657
      1033.69955146
      4766.59264134
      3915.37280296
      2416.13120789
      800.74496886
      -85.99222546
      1466.36314203
      -2537.37265238
      201.86251778
      427.75535191
      7508.76032595
      1969.71716483
      15509.07559543
      10323.99009080
      -4343.88289672
      6231.71672549
      3947.03738575
      10334.66376741
      6397.49069806
      -1264.01249924
      2531.63263105
      10383.19017580
      4341.41239084
      9458.16877593
      5906.89108607
      423.90064440
      1687.55457514
      1107.21664686
      -1103.16617517
      6002.09592662
      6002.79261199
      202.55705877
      7327.50004535
      9864.89824883
      4377.42601635
      2835.64430931
      64.44973083
      6408.18046615
      5758.52170105
      8493.26724733
      6111.25935433
      635.47461621
      2067.30946183
      3885.05779333
      8641.68251352
      7290.82274600
      5152.10656603
      1326.13206772
      2117.44716865
      8957.36255005
      1987.58694214
      5549.56381205
      2992.92188153
      9419.13576397
      1998.56461415
      1992.65890453
      2273.97268514
      2512.50998638
      4203.87924713
      4328.68243848
      6856.87819342
      4985.82992385
      1593.13591962
      3679.26638225
      3878.96563870
      4859.72389560
      1482.69630683
      -516.20337107
      2090.73462787
      4011.78870119
      1351.31205500
      -972.90872963
      2746.98834484
      -2678.90884561
      1192.05663132
      1185.34885178
      7467.44911459
      1254.17207678
      419.07570763
      3697.44858721
      20947.14729642
      8147.88836077
      -232.20435089
      1197.71525105
      2262.13844981
      -242.01137433
      1120.59098925
      769.85944929
      2586.07359677
      4573.35805176
      -341.67454113
      4487.21133369
      -7025.17418493
      5427.53965950
      -659.70056145
      4517.47667703
      6530.76652517
      6307.75759173
      8403.16737579
      2289.53390118
      1240.76713516
      -2629.43773994
      -195.67441936
      4440.09477399
      -3110.43583087
      -4941.91238881
      642.31951133
      6785.78098370
      2915.03288970
      3829.00971956
      -1071.60068625
      1100.57941331
      3444.09590132
      3807.76315900
      1920.13248047
      -1988.69229884
      -1744.96458312
      3490.87244435
      5333.11947696
      4342.23382708
      4057.83734672
      1760.73444119
      2481.78779834
      2505.14246175
      6868.78001200
      881.81258045
      1600.99568232
      101.24543029
      1895.15444860
      640.09538037
      2348.84767923
      3850.29558408
      -666.22835374
      2080.82033235
      3186.05095156
      3124.79568958
      -863.41907840
      2676.29807375
      349.31840420
      -2550.44798230
      -1234.22015864
      311.02122661
      24372.82864821
      2779.27894061
      6409.74216384
      -1476.20788231
      17058.00501920
      4650.20138900
      4191.02683307
      1759.35845259
      -6117.23917837
      2285.71895744
      785.83334125
      10651.08802034
      6904.55977473
      2263.77168536
      -761.33585226
      7919.02774713
      7943.59223439
      2280.49601624
      -5371.45001546
      3961.20419817
      2909.09472129
      2554.97496079
      2862.81322979
      1140.82896394
      1932.67521717
      3799.90612708
      6564.99774050
      4114.17234730
      -418.57039185
      1933.10652056
      3333.14959985
      1648.84056622
      -385.95437166
      295.71096370
      8434.34756173
      5489.87437113
      3328.95310837
      4588.80910943
      3224.42850994
      4327.65368608
      509.90268474
      2732.89923136
      3983.02127827
      2920.26377294
      651.55311657
      2892.63352335
      3123.69018915
      1076.13844478
      3888.22902816
      2052.54710420
      3830.22605381
      4588.33412892
      2864.95947353
      4579.55803513
      5438.62355324
      1650.41440977
      4445.10745808
      469.17435464
      410.65224117
      1729.03949246
      243.47242828
      2668.23599809
      3548.59751484
      -843.02911388
      -584.41842092
      1445.00974002
      6773.90001991
      13510.54618421
      882.80815734
      8339.76265939
      4138.08026800
      8818.82185578
      3531.86565537
      1882.35077874
      -9196.78505945
      -3730.37433866
      12082.70485812
      6939.29976573
      8466.41022423
      2775.63540186
      858.26935003
      1889.92756001
      12928.11419870
      -2574.08343662
      2144.82492619
      -143.75075390
      3585.23902089
      1171.45753040
      6838.72164594
      -1006.45346172
      4407.98635369
      8126.79020875
      4312.22996592
      4307.30049527
      3883.07912130
      825.68296444
      -794.23333084
      5194.31529783
      1922.86139054
      3419.42207583
      943.85321843
      3011.55000511
      5789.90974488
      834.05038300
      -632.08132674
      5169.90126036
      689.91307095
      -296.36504137
      3532.57105916
      3267.49055608
      6158.19926003
      649.46773684
      1397.09234900
      1849.16415420
      -1105.01755034
      4531.09881659
      4093.23441769
      422.90404350
      1782.04423174
      1775.61718077
      64.67617663
      1128.66676955
      4052.71062525
      4373.27665962
      636.30547886
      1837.00827248
      5026.86110942
      2736.20844517
      5476.42489502
      -4958.86072375
      -717.95619176
      1417.58067372
      -19965.59071168
      -4226.02213626
      -5310.04243709
      4724.84941737
      5886.38673892
      5921.14158588
      7304.45434123
      494.50741400
      4522.42798140
      -6843.59395268
      122.47893207
      5131.95344863
      -111.62754972
      10049.10834755
      6805.12985276
      -4247.16818154
      1727.37452905
      -3041.73596802
      7192.35460075
      5507.18777114
      5034.93424391
      5155.51150879
      3558.75645126
      4656.96397724
      7967.89739883
      4950.42485262
      2804.77345821
      8815.36971319
      5549.80769156
      -775.56669603
      -5035.11318986
      -3739.38440498
      -151.15157633
      1876.22721920
      1954.35524684
      1299.43137401
      3919.25733631
      4720.30991127
      -271.62638904
      878.99337442
      3410.19461885
      -1413.19150653
      3670.80056576
      388.00169305
      -46.44967002
      3303.39773861
      3367.66486070
      3250.20947563
      -213.37767804
      -2537.36302883
      4343.93215482
      4570.65609480
      4636.19717760
      3599.28456814
      1929.12388366
      682.69786743
      3250.01162863
      3717.31607909
      2240.50863214
      1916.24097899
      -508.40033752
      3483.61724000
      6094.25211803
      -4057.16042701
      -1476.07210607
      346.54372970
      -21092.59274256
      -908.01506078
      4907.38662231
      4876.68787375
      4627.93671366
      4476.09119250
      5841.37529487
      2439.15784898
      12623.72746376
      -6614.01925345
      -5986.68549776
      4046.67254269
      14018.00257740
      18713.05142093
      -6321.68544195
      9347.82021455
      7506.14744799
      2724.41564442
      -3076.29694744
      -248.05045273
      254.27044529
      2511.85815822
      5675.10939081
      11498.11720788