<?xml version="1.0"?>
<VTKFile type= "UnstructuredGrid"  version= "0.1"  byte_order= "BigEndian">
<UnstructuredGrid>
<Piece NumberOfPoints="5123" NumberOfCells="5123">
<PointData Scalars="Pressure" Vectors="Velocity">
<DataArray type="Float32" Name="Pressures" format="ascii">
      -1441.89281363
      3438.67855151
      2787.62311582
      -35561.77368429
      -25076.91863939
      8845.56077257
      -20482.92742986
      409.57787359
      2333.07466445
      -37979.07088609
      1322.63710728
      -24929.46055353
      4108.80623450
      3721.95692748
      -24289.64383439
      -1173.96540432
      -28172.76905675
      7546.18441647
      -4880.71889755
      -19896.22698744
      -2670.28188388
      -466.87397079
      794.40678642
      1532.82984127
      654.49275434
      -1042.83872925
      -3302.21002291
      -418.64877469
      902.44871813
      -425.54159028
      -1066.80337242
      -106.17815096
      1298.78341319
      -5553.62223747
      583.39588023
      -767.32180783
      -2660.66507969
      1723.24121038
      876.63526746
      -71.16846768
      1101.49589187
      865.65752500
      538.98570025
      -1381.30442234
      -182.46755856
      -450.84150679
      211.38880404
      227.73673102
      -121.57500340
      -625.34334161
      13.61350795
      1350.09720208
      485.09053261
      -477.66963215
      109.63150477
      279.22542555
      -474.98509738
      279.36171907
      481.34674914
      547.09041643
      800.22954585
      -742.83060789
      -814.11463331
      873.27401472
      1.13242361
      557.87005784
      4283.26698713
      8830.63865291
      2379.81359568
      345.39794751
      -1679.81197899
      1605.43928808
      280.64769832
      -398.47027811
      589.71441025
      1073.84952319
      24.25441052
      689.47427210
      605.81503899
      555.67483027
      2131.53320488
      716.31831342
      2994.09847028
      4198.75141008
      1847.95662300
      -7404.44759697
      1145.52358422
      -31.95006587
      -935.64174130
      -920.69803595
      1248.65525249
      -673.37520891
      1108.15321556
      -12730.39060796
      4922.81408875
      -327.41516243
      2390.38879387
      4124.39595355
      1931.12380574
      3484.25607111
      1592.31164574
      -494.03183541
      1202.78845799
      5562.83672937
      -2197.87336079
      519.93961666
      597.63594087
      -355.08355862
      1188.67659823
      -492.00727318
      266.60862958
      1021.07135068
      249.17692180
      1289.89583903
      -154.47554485
      473.99865771
      112.22804308
      118.99955072
      444.79451465
      746.15006287
      -401.54369704
      -1812.70694674
      -790.11196979
      -2386.63511296
      -1049.90142038
      -146.16823058
      -1218.74765029
      -1848.71070071
      601.62353979
      354.21982287
      200.39827000
      124.52958748
      4694.90489007
      -4321.98411624
      1100.36509811
      3552.86170887
      5260.15643901
      3996.44587008
      1621.01210446
      2002.28893896
      2252.70172294
      902.08863199
      310.52095886
      1759.18195339
      3541.18634217
      368.77977910
      5258.33222373
      990.57880801
      3172.94121139
      2516.56623284
      1851.33615321
      912.76663457
      -510.17507915
      3523.98265474
      -8179.87576470
      1136.37071341
      727.06026836
      615.53600801
      4986.21322422
      3497.65793081
      2702.97372081
      -732.52828848
      1281.91548309
      7588.14305179
      5603.80345770
      2119.98768290
      1741.93462166
      1085.28074084
      -30.06921170
      -1009.36564251
      -295.82396675
      -2902.33185798
      2651.53296277
      631.88888316
      1218.26746936
      376.32965660
      2521.39274886
      1995.10803367
      2791.18168076
      790.09735705
      -434.70059635
      -95.78742988
      794.61487064
      37.84811895
      -3456.23850895
      -278.08008273
      710.79407892
      4930.50001926
      -1365.09624027
      -1262.71868909
      -508.48403252
      -1814.64783550
      -176.90023985
      -272.04181222
      1410.76107462
      554.15247443
      -269.54928023
      995.61834821
      1644.94109979
      3241.61835844
      4090.76983776
      1893.82528609
      768.97983814
      2056.79519130
      2760.17869170
      2049.42777548
      1073.71330082
      436.11556532
      1454.76649854
      2685.10093752
      3147.91475831
      1841.97285192
      3940.13941367
      1958.68639225
      2333.60667851
      1216.97189367
      4829.95344627
      9163.65329084
      5616.23195203
      4356.60371653
      -1673.80246553
      -2823.18455401
      1556.98531646
      -2151.65667893
      1072.65879438
      824.51769908
      2585.52976713
      913.16511087
      2132.33289602
      -1397.12403263
      4874.20018236
      113.26623017
      1520.39164721
      525.95375970
      1636.99767703
      393.74094673
      510.09161227
      -186.10091619
      1428.71076368
      150.56706417
      41.19321769
      133.99503739
      1943.75253632
      653.64094030
      185.73354863
      172.82188218
      850.43746652
      -1823.83471259
      -3388.76681711
      1125.31214381
      885.83191772
      -3042.94728783
      1036.81352982
      1996.02244823
      372.55651121
      1312.15259736
      1277.72213622
      595.68955308
      -1303.80838351
      -722.89102839
      284.34023314
      1734.35760911
      430.96461280
      437.27255290
      12854.79583323
      -2360.42369797
      8086.90235753
      18081.36299925
      4663.85333559
      7909.37014291
      2903.78792563
      2126.67709879
      1294.84139437
      1253.08377337
      1992.30109437
      675.97502851
      -1603.98248690
      -76.62760311
      3988.81026798
      2366.51296795
      2032.53624800
      1079.47560316
      4809.14818288
      2763.63322044
      848.58989451
      -713.71243406
      1239.84339081
      -2780.38790411
      5210.67246033
      1285.62361615
      2971.37599114
      606.33830348
      2711.82538855
      1787.78634417
      1141.59981384
      -1650.88512205
      1083.41095102
      1213.59156251
      1955.36676583
      1797.85537123
      1927.70852987
      1199.99155058
      3526.15254099
      5759.90600097
      -1500.22650855
      454.57245519
      -288.90277615
      6612.44091014
      1097.18338553
      1321.14684932
      3768.53348395
      -2025.98301305
      2470.22940035
      411.15489726
      100.57157848
      114.98327360
      746.87259553
      2562.86852238
      4831.61458277
      1579.64626886
      2982.86744198
      847.87025021
      742.33114831
      -504.63824747
      -267.71506684
      -945.66460356
      -689.63173891
      -700.19052707
      -103.42924555
      393.79246896
      -17305.06999468
      8826.36201895
      4992.60891194
      3350.29506348
      4544.44316867
      2435.37370292
      626.70237942
      6270.89290453
      7494.96199583
      1460.50330188
      6377.63510000
      4892.51726112
      2177.54827284
      1545.81724973
      7007.45174281
      2053.47590299
      4089.43269234
      110.68539987
      169.00309134
      -423.62386932
      -559.39360236
      3.00523983
      2054.49058217
      4399.21606257
      4809.67166448
      -2398.03378579
      4175.61726765
      1586.90870423
      3320.87983720
      3769.50178549
      2840.26787525
      399.79294919
      208.39653785
      5042.32991813
      -2361.60685706
      5378.80366558
      2296.45227551
      -3655.08376230
      8942.15589626
      3616.60541852
      2056.09045286
      -6516.80696117
      4665.25472489
      -1419.42617619
      4427.15716988
      -437.05011668
      3181.12458239
      5182.74963471
      1344.57811306
      5058.92341741
      -162.20457435
      667.87203361
      2665.69176611
      751.70711213
      1414.73566634
      1744.06952616
      3585.12619967
      454.19844566
      2385.95026556
      468.84745476
      2491.66180934
      194.15589150
      -2182.74923772
      -911.06323759
      -141.88492141
      603.54500084
      -28807.02041058
      4778.03688477
      4775.46451224
      3814.29285676
      7129.99824239
      6051.40254455
      10948.96870187
      79.58882752
      9739.17784165
      4955.02012297
      269.26201476
      871.64539464
      3837.73776713
      2227.20543898
      746.43606032
      -838.66071419
      4744.28297071
      1066.23559990
      6537.54610683
      2742.29859844
      1734.86725083
      1308.27751524
      2421.67991515
      6537.40203593
      2403.14606025
      -131.19354225
      10005.27416597
      -430.24711718
      -2371.94881114
      2705.66569179
      6987.72729102
      541.17910450
      1970.62763978
      2508.35093935
      -7091.63468551
      4160.74215342
      198.97388617
      -1882.67968008
      5928.46981441
      3062.74600970
      427.99902991
      2820.12200321
      5050.19924127
      -2659.79825538
      -860.25512100
      2305.42480755
      1229.86470016
      2463.57437112
      2754.45686573
      5422.14562683
      260.27540564
      -160.98498875
      2537.37124806
      1188.63010608
      1754.75910706
      158.49764834
      1400.10855906
      1225.58481423
      1345.24530610
      793.69690468
      -634.92733054
      -1543.68156062
      -2743.25293072
      16.68069318
      -45.44000548
      -32.36986949
      9709.59774238
      7073.41155945
      3300.06434925
      1984.15085115
      3010.10052849
      3234.16960919
      5233.26088120
      2690.45835570
      2826.33633349
      3405.38320307
      3800.02978321
      4523.17223275
      2441.59712829
      5026.39454288
      2785.23232652
      4183.62383509
      6370.61672466
      3501.53460406
      3192.61051134
      2612.49149634
      -4113.56690607
      4022.43284803
      3703.93114617
      2165.29923763
      3667.18478570
      1689.10684094
      2144.51289427
      2523.69441756
      2261.30227925
      -1661.80394815
      5096.17057775
      3308.34879214
      1261.88846102
      4549.16167164
      889.18096496
      852.64041806
      2716.10511260
      2235.50813559
      3317.13894312
      5012.65650885
      1965.06755374
      1089.15478383
      -275.63772070
      1486.65223670
      2683.90977073
      1840.88691333
      1608.87014357
      -1085.25822041
      1574.95467288
      695.99149856
      2910.59195370
      284.54075989
      2550.88703521
      -391.03868876
      548.72427060
      915.98003814
      1440.43671562
      735.00862458
      377.46843877
      1010.35195033
      1202.34507294
      -486.84893059
      -2639.70477235
      -1001.53980021
      -170.12255330
      286.58698356
      -18063.76538625
      2715.44027171
      2548.59747499
      5092.84917368
      3242.42195834
      1651.85440302
      4489.21490429
      3022.38370954
      4627.93715252
      3536.55121116
      3358.16895521
      725.73758971
      3051.21530484
      2983.91410801
      4171.32670423
      4216.82909344
      3494.78744924
      2710.32932762
      4090.21570271
      2104.90929721
      2693.63057838
      1500.44438294
      2924.35610294
      1252.60703230
      215.66229114
      3776.10596429
      1625.91401241
      1630.94999765
      1906.38688619
      3356.15474794
      3669.14135382
      1197.91019824
      1172.94373580
      1314.09303394
      2206.42538514
      3827.54746509
      3624.72563494
      2042.95611003
      -1725.35018907
      1942.41323314
      3057.23273920
      3704.36537928
      2380.90948141
      -1206.71993304
      681.93497748
      735.03477153
      1899.28522487
      660.45252363
      2785.04859426
      2364.37220235
      3586.19488943
      2335.97344510
      37.90629450
      1450.26951262
      -546.66239819
      1209.52042701
      688.70740020
      573.93275004
      3049.73461071
      1083.72948528
      -411.78885161
      -465.90450870
      -3734.10051025
      -172.95436237
      -1961.24817902
      567.05282517
      -35532.71009678
      2623.02390739
      6697.05257807
      8048.06060029
      4024.07244658
      9124.50085786
      1123.66378359
      1884.30692568
      2358.39748989
      2341.79822304
      1987.74540876
      -3265.12077719
      -1314.06436976
      1355.33789136
      1708.80108729
      6027.20419067
      2467.08269041
      -2524.91473165
      224.50343446
      6227.53629793
      5112.12198121
      3175.83998624
      11739.30201230
      7413.34299344
      932.30920695
      -551.23227211
      -6927.80947391
      1469.02908745
      3071.52541267
      -6290.93176587
      5653.16663437
      -378.51394946
      3894.96048586
      6698.44366016
      -1075.90077939
      3239.28047011
      -4105.73087097
      125.07289587
      288.83512718
      467.14603042
      5717.93247546
      -319.68607346
      1286.07711858
      1752.20901397
      2047.32006665
      2173.96500332
      777.13497823
      -1317.10844780
      -57.15470666
      878.12069905
      131.22969808
      939.73620065
      1603.50123185
      -2629.17121064
      2583.58558856
      1657.97238170
      -1067.82800003
      1389.23527701
      1766.08233493
      1918.34901133
      592.29164937
      1749.94918925
      -507.76524279
      534.59338838
      -151.35096540
      263.44400239
      -32327.05726218
      3513.23155473
      6251.18648663
      9675.65108728
      2304.90697421
      1624.82319511
      5253.23866072
      3106.81663491
      2354.22240483
      8099.40710794
      3939.94607512
      -7124.60323903
      2195.26375175
      9566.08165825
      1908.36366914
      2119.74979086
      -2473.00618948
      6239.30680485
      -1803.54795918
      1525.66903896
      704.16232477
      1327.85119482
      1877.33299891
      -2407.10852837
      1065.22499398
      2505.64101766
      2788.64488542
      907.17929181
      1512.22725368
      2786.82282014
      1261.35093951
      3051.27295088
      2124.39278904
      703.86122153
      2150.38677734
      3011.68765126
      2473.84820705
      909.29756323
      -25.53251792
      -68.05030099
      5798.34226831
      4200.05509518
      -608.66868189
      4122.48896601
      -1355.44888819
      -2671.59001633
      1691.04460757
      -3281.15484935
      4439.01163350
      -3504.97534745
      -4184.75894180
      1850.07410555
      600.72126592
      1958.64800335
      254.74929847
      163.35033997
      982.46004287
      -3460.64058323
      292.74277347
      60.86664394
      335.65262259
      1828.08367355
      -2343.53083971
      -995.01967743
      -507.42015721
      102.54619146
      7140.16294882
      6271.65570367
      3772.06658373
      1694.07397058
      5380.83977473
      4178.90164448
      5432.36088281
      3907.03862464
      -376.74987276
      1419.57106072
      2692.71895198
      3690.77251349
      4265.32065127
      6281.09146521
      12299.28798406
      2997.78704947
      519.09851264
      2668.45378684
      809.84593209
      455.89411201
      3295.17101684
      1200.38267755
      5098.35217914
      1815.93901706
      1103.83668811
      4304.07959508
      72.92016618
      2487.28049725
      -4160.80746961
      2788.19647398
      2382.32775444
      -1191.93192889
      3685.44139858
      3935.34777927
      2130.43770780
      -1853.75516752
      2010.59983667
      1710.13154757
      2273.27883059
      99.14380312
      -211.28105738
      1953.36717049
      2660.84197517
      433.47212518
      329.76971654
      -2104.28224268
      860.84881301
      -1132.11538674
      2879.98422159
      -302.14953171
      765.39896455
      53.35760629
      -39.32655400
      574.23380516
      -474.05354466
      1169.30468566
      30.54136310
      -1938.16438673
      1138.51254206
      65.96581984
      -415.06513567
      945.81995721
      -1226.66928682
      -1141.26916320
      -629.84164687
      408.61697984
      5638.88884502
      14091.17386468
      3599.45504081
      3176.55983072
      13211.18692489
      5612.10575817
      2081.57301372
      6321.63007927
      -2593.29451529
      -2100.98756393
      373.69487486
      516.63247359
      1488.46114359
      4241.51834782
      529.60695801
      6439.74969274
      5336.61855145
      926.84976116
      6219.17394236
      -2872.55701205
      -6708.53194839
      17468.05956597
      5456.00090701
      -1364.31786159
      585.54704744
      134.15446272
      -1537.26071704
      3498.51613177
      6684.96688760
      -1268.14250469
      3350.61854117
      3029.49131527
      346.81912371
      3202.75861731
      4082.84062783
      757.49118383
      -399.48499466
      4106.44564387
      2922.27026914
      -225.75908648
      -1402.67910967
      2918.00263259
      631.76842718
      771.90596235
      -35.25775732
      -2828.05964303
      2593.70215400
      480.34308230
      -194.26421010
      1420.16692816
      2751.20782601
      1340.73822638
      558.88346492
      2595.82600006
      -2017.55703134
      3793.18084231
      882.65750579
      -2063.51985915
      305.99967532
      2522.08724764
      -397.75370795
      674.76673690
      -2628.58964369
      286.21919074
      968.33714212
      906.70616298
      3678.55108858
      5401.15743703
      17784.18348892
      9350.55015725
      3125.80308007
      2776.03402777
      747.50823435
      -445.02753133
      242.17965937
      1301.70298834
      4870.52502479
      8662.33826799
      -1338.54420925
      2883.87735206
      2768.90422992
      2170.41682408
      2426.97529878
      2467.23092610
      1090.88111924
      -1621.19931489
      1486.29710099
      1186.81426650
      12185.33863690
      1328.06271361
      606.32412809
      1047.22119200
      -596.47794596
      4699.20732717
      1345.31311868
      2046.14236082
      -290.79261720
      4362.99321894
      3846.43769841
      -99.31107645
      80.10452442
      301.71175120
      -44.45542554
      3049.26481418
      187.35988077
      1439.56350597
      -2498.57547032
      2052.20728889
      443.03037625
      -4061.25050507
      1415.58126246
      2854.30479981
      -1255.44286368
      625.35792583
      2969.44878441
      1882.14734590
      1358.22187025
      172.32338661
      2436.03660542
      -291.12809540
      257.78266899
      276.03768664
      -302.97936432
      2968.05977955
      333.96731176
      1202.25288824
      448.42279312
      848.95014770
      1580.16869256
      -171.22731788
      94.34705818
      153.64627919
      22722.16695464
      2579.37441961
      1697.63035939
      5496.42116874
      2894.14279939
      4230.56799491
      2411.78555020
      4957.47578968
      2878.14570182
      591.34969322
      6373.77756252
      3517.63917769
      6161.61525283
      3349.84692905
      -3253.42353246
      2326.79908892
      1900.45738749
      6579.88085963
      2444.54159709
      -177.46713427
      1777.22435302
      2814.15240341
      2543.66201280
      4286.56384095
      6550.07013529
      3963.20882290
      2846.06672058
      8112.60558750
      6249.35632406
      1945.24577787
      3668.20193467
      4224.55731555
      2466.97698590
      -189.51521031
      32.35560690
      1988.32443595
      2402.85489259
      3106.80519177
      1559.31922229
      314.28665603
      247.34271327
      2125.77052702
      -1150.69499018
      3722.63198156
      -3278.58608927
      -1435.11848746
      2352.14216710
      -356.86442573
      -97.25849716
      -3189.34482567
      881.86251808
      -148.92445842
      1430.03967682
      1221.07216568
      376.99449209
      -15.64481828
      -299.55535376
      1064.90181937
      405.19710542
      -282.49228415
      2349.04665384
      -720.42583642
      -402.13598282
      597.95525387
      271.21224103
      -243.77162189
      2077.34283550
      -2956.78161315
      5544.26471476
      3218.45058600
      468.57281330
      1890.93194510
      1404.51480405
      610.80159903
      5876.77750051
      3309.70997454
      1183.88739160
      5444.87197051
      1402.71791709
      7077.08986335
      6583.32967542
      1813.30855512
      11060.15674460
      5022.54557340
      -8831.22506772
      -352.27725527
      1360.71516319
      8599.25971049
      -449.96880920
      6660.05511108
      -1599.26897257
      6447.95907760
      -1421.62969946
      6663.28546338
      2603.12337476
      1155.09339171
      2084.10420327
      1056.83952221
      -3940.19809735
      8749.41752571
      3188.00027451
      5248.99391936
      2679.67651735
      5542.32938619
      6532.40985267
      1375.93842715
      6092.31243426
      2800.47534775
      5260.13992722
      4205.01192741
      2336.42537574
      -2402.84909192
      813.76162374
      -1880.91632269
      595.68952044
      1611.57179328
      19.28694418
      23.39151894
      107.14967016
      2833.46023057
      1411.38844188
      -144.10836035
      1640.82144168
      -668.27569525
      990.08360043
      -181.34965692
      -345.28120731
      412.20620623
      131.70066828
      -447.15883367
      -169.55935397
      -573.75772774
      7783.67512322
      2527.98570049
      12968.97399131
      3793.86419435
      1819.89866281
      -202.66797719
      1760.82206096
      2910.72694036
      5510.02374152
      2469.51207774
      4684.51421233
      -346.67261435
      16145.46993120
      2225.54034299
      -1850.95565261
      6804.53961678
      10715.34073832
      9294.46832613
      10382.02159575
      17057.58375934
      16531.32094421
      4575.63382197
      6138.90057543
      7648.99021858
      -2696.61929358
      4791.40849083
      12643.81437799
      7103.73560612
      7680.74278404
      13540.61119732
      11862.65456758
      14991.14377145
      8721.06851584
      2218.12756102
      4896.97206338
      5824.26607354
      3358.83923326
      2110.08273507
      -682.72825285
      -530.44695812
      1644.06456344
      -276.53723795
      5911.20202780
      2255.37629559
      -1790.63284456
      1675.64798535
      -402.58151667
      1883.42481841
      -2207.38353175
      3325.32554778
      2038.13020476
      -147.32700572
      1237.11116061
      334.65159986
      863.77019453
      49.78243022
      -802.43463463
      -365.45095654
      29.25804711
      -147.23067446
      298.92028283
      -275.71947535
      -168.49033552
      -559.58704701
      -498.92680932
      -1055.31865055
      5368.09981643
      8377.21411173
      9256.30219736
      6020.78083727
      2852.06175938
      4390.49319438
      4609.22428329
      5708.97613715
      3788.74557795
      227.63034960
      3254.48301756
      6115.62783711
      4158.55128342
      5574.10307604
      9527.89044678
      1105.94801310
      6653.10802356
      -268.97192807
      4473.11080178
      2223.18601902
      -3017.18019365
      13985.57316770
      2265.72120015
      4800.21079874
      1619.29525169
      12230.12585580
      6930.20124465
      23157.50377287
      15231.93817577
      11862.48092099
      5764.04520713
      3882.00043041
      6171.35072211
      6167.16236476
      5723.01120445
      11363.55533692
      541.63928435
      916.91151782
      -5151.67148253
      4805.08083623
      1589.38552600
      2315.02009534
      2457.31673779
      4543.15721444
      4866.39966931
      923.64299068
      -1805.56688092
      3226.47848208
      135.30141358
      4097.28036084
      1337.93857936
      3978.68184235
      6080.82993270
      2610.00114084
      73.22724006
      -1076.32646206
      427.27265259
      116.52738827
      1523.67470067
      745.09516795
      294.97807770
      -63.15084553
      -209.06525194
      139.23405704
      708.10377510
      -509.22467248
      8048.01938998
      14038.76565072
      6873.10309358
      5216.83115613
      5871.62232301
      6760.89955692
      8732.93756541
      1581.39475976
      -860.35923714
      2484.87785894
      7888.78022326
      8277.52433594
      -4022.24397384
      1083.38863022
      6842.31515551
      5432.66234694
      6812.04182051
      3045.26011845
      17218.45700538
      5363.94982833
      3558.52456095
      -1416.22104227
      804.38349020
      7125.53224256
      10895.73181690
      6391.66690409
      9609.45013951
      7490.19631135
      2115.01769644
      12439.94019864
      484.76872050
      7771.70095690
      6272.93032419
      8313.37410649
      1409.72240201
      11410.24472087
      746.24762250
      1296.74842898
      306.20512799
      1414.40188183
      8266.79320480
      -656.44337306
      882.44863276
      697.23487014
      471.18300966
      5874.79668169
      11033.59683772
      -558.48024212
      -874.81276118
      -62.51806755
      3533.59562041
      2329.17774211
      4059.17748595
      1596.39546630
      1119.34916519
      1532.80515893
      2114.88336378
      214.69493370
      264.88285033
      1004.00324324
      587.14270231
      -1725.74034693
      -1759.24741211
      -842.92458900
      30.77339500
      6.18036641
      14893.41595693
      70.56638224
      994.02494476
      10931.24396130
      5981.37700522
      9528.58482543
      982.06971357
      13507.03255892
      12463.40172075
      3214.43938816
      5768.24526856
      4113.16703343
      5994.20108887
      1002.89629342
      9464.45760498
      4999.74854427
      4373.65571282
      11750.79655964
      7271.59170979
      1992.37666292
      3909.95037750
      7432.75748999
      10424.13183804
      13943.55189819
      7689.78958777
      -8389.61847031
      11368.36315885
      22551.91160451
      9506.01966759
      4615.31692803
      15084.31864217
      22725.76267273
      3305.07191129
      7994.73396316
      13700.46615588
      23011.42173128
      -7233.75111366
      -5375.40750911
      4467.83184667
      4122.22958193
      934.60652433
      6442.67514136
      4079.85562504
      -204.86029096
      3417.74585261
      10715.08661238
      3937.32635036
      2553.25779278
      637.21663885
      1659.32469899
      1430.31387863
      -4633.50180313
      2539.01662568
      4930.13106007
      2433.63821821
      3985.44150636
      958.34754419
      1942.97113776
      -865.52012504
      928.29145744
      1131.47661333
      655.15856189
      -1049.83205046
      -483.61279590
      117.70975607
      -49.81574184
      -8483.32960546
      2603.15314851
      919.93450363
      1814.08819831
      3857.45429143
      8543.46416216
      3743.03161159
      -186.90534492
      7957.21614685
      6986.31274080
      8371.91450086
      1346.45415658
      10179.70183117
      10928.13125234
      11327.50688220
      6829.25385757
      3570.57626654
      6614.97998218
      7175.19695149
      11090.90214575
      1846.60234848
      3113.78881212
      4776.51879819
      8093.38212636
      11997.88055273
      14173.15104412
      -3210.39988154
      6301.62420250
      3029.39098858
      8243.91247118
      42.54638977
      346.71137212
      2975.80615069
      8708.61968655
      3860.73016984
      10326.26806418
      2160.86813942
      -2028.42543506
      6585.15429272
      3605.72847589
      5782.34816150
      5764.36455513
      2832.78701014
      5282.61699681
      5088.50384596
      5895.61806111
      6480.73825612
      5459.72177816
      5470.29036388
      9163.33946273
      9788.09906047
      100.73759485
      1068.23022528
      2687.92053566
      2205.32737861
      1352.35313241
      513.62620002
      -1078.22490540
      5487.34865473
      1816.49710556
      2795.07640022
      1496.72628248
      2090.93026864
      1057.94109501
      -191.52017076
      573.03956128
      -19965.59071168
      7247.17972084
      3732.09807025
      -2601.93897745
      8812.09774408
      -695.02198410
      5188.87914557
      4853.97913455
      3968.98772270
      -595.54339586
      3911.72152877
      10928.02367963
      7865.11542352
      15068.52871481
      -1471.28727946
      -9200.22204425
      1216.62853001
      6964.56983092
      6821.56648012
      2532.06827355
      -565.97262095
      3399.83470274
      -128.62586960
      81.98441027
      -96.67248468
      3400.69214020
      9437.03427411
      -485.29933266
      6381.81583637
      -4154.13951909
      -4553.25948872
      -4349.59048418
      -570.32996930
      2328.95678174
      17108.98135342
      10845.99965231
      -4131.72755823
      -2913.18834309
      -385.95907965
      4104.87392349
      -5469.14841413
      10282.01110650
      -2544.85771878
      -334.21992879
      7774.53321549
      5204.00479107
      4912.41712156
      621.97645193
      -571.40505132
      2839.76581036
      1937.41336831
      7456.76513833
      10011.62994331
      7632.59649161
      4126.24221002
      1185.30962357
      3465.51453911
      -576.32249424
      -704.46712171
      -1708.31422287
      878.62430160
      1617.67799863
      1228.32843431
      516.65846205
      -27.57457353
      1204.52244123
      -20679.69231914
      3488.06391917
      7394.11873419
      4337.25317931
      11108.66065847
      6982.27853944
      2366.87706148
      4023.19618858
      12644.55854477
      2537.77738841
      4866.78251068
      -12977.32250021
      12560.51328563
      659.19546675
      9140.12801612
      3618.84877328
      4221.33121884
      4279.97270817
      1733.21946603
      3382.40783839
      2462.72819295
      626.31428459
      1135.22087071
      -396.30688675
      -24.42129063
      233.02958857
      4084.02425051
      -1224.39366766
      -1625.97152564
      -1058.17948806
      46.95658224
      2482.41347840
      620.82555929
      2189.23313355
      -3929.03370988
      3732.36430117
      23489.11467483