<?xml version="1.0"?>
<VTKFile type= "UnstructuredGrid"  version= "0.1"  byte_order= "BigEndian">
<UnstructuredGrid>
<Piece NumberOfPoints="5123" NumberOfCells="5123">
<PointData Scalars="Pressure" Vectors="Velocity">
<DataArray type="Float32" Name="Pressures" format="ascii">
      -663.48610406
      -8632.46546271
      4250.03505818
      -35561.77368429
      -25076.91863939
      -557.19834509
      -20482.92742986
      16132.47378256
      12488.05066177
      -37979.07088609
      20362.22635113
      -24929.46055353
      -14913.50903819
      12391.38011354
      -24289.64383439
      9146.30338368
      -28172.76905675
      9970.32606557
      4597.76720261
      -19896.22698744
      11618.86255132
      4444.19224873
      -7287.88949212
      4900.03903545
      3659.25596661
      5132.55713529
      4493.32244129
      880.13761560
      6536.93067184
      3413.14367427
      1204.47414301
      -22204.58929076
      3208.30060086
      9406.00302607
      736.02781702
      7955.64203450
      -918.19494198
      507.62311609
      2624.09776194
      8520.27912024
      -3711.96006393
      3001.28213930
      -3088.99447580
      1179.03998781
      -622.88226591
      12531.98906140
      -7913.38625787
      -4498.29482706
      -697.69315916
      -1387.74925769
      -2488.79066278
      5720.07759013
      -1352.17807506
      161.11415038
      -3993.39985198
      -3730.05394809
      16.87780862
      3305.83523028
      -1374.01773173
      -3301.41554959
      6.74869211
      -2792.41977882
      882.49281196
      244.48535532
      209.68174628
      -145.33431363
      10399.51268093
      23637.53484755
      15931.75995769
      10734.75351995
      5164.80992279
      5306.12951863
      3247.60900230
      4111.71914757
      5631.31838919
      6477.79278562
      5894.40635813
      6272.64058226
      4047.03857781
      1766.71567883
      4808.43642932
      4572.89549544
      11782.28701703
      8326.72182451
      2775.81884266
      3559.78381149
      2703.28878672
      2894.10459796
      6764.41545839
      2490.99261510
      5150.01303052
      4697.12587795
      -2526.78094099
      3997.77544469
      3023.15322891
      1295.17213722
      2140.62827003
      890.70822626
      1559.63335821
      620.94446360
      5039.05035656
      1764.52798278
      2839.28390652
      -776.69762076
      7766.51297397
      -378.85220410
      -1310.81576050
      1752.53105130
      316.44495504
      -1034.15793343
      1537.60481014
      5422.94029995
      2267.56470942
      -3361.11446104
      1209.65373239
      2331.75590876
      -6878.81666719
      1142.82818428
      7501.82916319
      -3336.41727179
      -3760.85588784
      3662.33243513
      -3685.74429604
      -3919.46867313
      -314.69402960
      -484.32046868
      1328.49731386
      -1153.14522880
      449.71165831
      1392.38839386
      1550.55245537
      501.47220493
      9545.97008857
      5906.15454077
      12015.42674502
      904.88847089
      5267.20624048
      6211.97952349
      10084.65285335
      8504.58268496
      7136.11333273
      5736.53452100
      2847.19228798
      4361.24230210
      6700.82076894
      10777.70186039
      7428.68521063
      3877.35531963
      5602.79191624
      789.24753253
      2804.50388474
      12214.33580347
      6327.97260516
      9839.70960759
      5870.81056732
      2519.88308632
      5143.75205929
      8105.51953884
      6608.92321417
      2459.91394385
      3986.21923003
      1704.89861702
      3020.89540740
      7131.20136016
      2800.25385476
      7789.60173562
      5685.39957951
      3163.71212186
      2177.17674034
      3103.99225493
      -32.19712240
      5477.95461483
      2868.40785249
      593.42697126
      4270.28510215
      -3276.81001118
      1325.43980130
      2939.20364015
      1147.23857428
      2493.29383277
      2304.60403544
      -2595.32204209
      13044.03891340
      -5989.92816178
      -1414.40398438
      2203.66927385
      1540.42001435
      -3952.94276002
      -1295.40846746
      1365.53972800
      -5217.55714789
      -3974.96668158
      -4491.71283137
      -3074.63559355
      2737.98925088
      -848.41035121
      304.10191431
      -818.55463844
      7059.82927533
      7182.31282295
      6839.36218199
      6573.91963793
      12102.92918230
      9719.96709729
      5309.27681446
      6546.20978742
      9693.63983334
      167.10835862
      7040.93790555
      15621.51427448
      6769.32031718
      5858.73396777
      11162.99123281
      5305.03198059
      9118.67519108
      7682.82875340
      8237.86222507
      5625.87720661
      3904.71448920
      8539.51839399
      12259.14807976
      20298.25400548
      4026.94273896
      6547.50330142
      4839.34308765
      2164.26138590
      4117.21094539
      2868.13900243
      4309.54959438
      4788.52717241
      4420.12740485
      5962.29861815
      5783.47922632
      2146.92878846
      8829.19853337
      1914.23227119
      2134.06202359
      6084.61333498
      6410.89000016
      4090.45576341
      4096.21179752
      2614.06125743
      6929.71297768
      4885.42313848
      -4123.41829378
      3574.53704838
      3117.82751411
      -2687.43239825
      1039.76954975
      3868.62547418
      1002.17789277
      1344.29036292
      -3602.62722049
      3047.09936075
      -291.62454359
      -2279.43596998
      -3786.04916341
      -1005.09063523
      1029.00350027
      1370.25197889
      11.76052934
      -981.09831764
      154.37936558
      813.46224151
      10538.04387754
      6733.65914513
      31452.11059657
      18017.66991095
      7365.18518348
      16101.72149728
      17467.94973128
      17982.62491341
      5837.75198832
      13249.97745319
      7759.90549834
      6316.37640374
      4459.03407758
      7791.98847661
      16249.82509024
      6459.55573080
      8360.16293262
      9080.23868304
      5742.36788278
      6398.26343135
      6475.04224251
      1236.93714568
      3085.65695709
      5001.82124394
      15116.66282892
      20567.17953363
      2971.47047667
      3110.10720780
      4617.38182762
      2365.63103658
      8355.42605189
      6042.24379232
      137.94287758
      3276.39072995
      3226.96767772
      4446.69496310
      10914.37608518
      6530.63424957
      6490.21111817
      4757.30263598
      1599.41931686
      160.95564010
      4289.50048288
      3545.21649743
      5977.48097750
      7103.16018711
      5234.24664709
      5280.23137094
      2287.65996244
      999.10131206
      3601.22820088
      959.08975072
      4591.75843419
      -6158.17167877
      5650.56413328
      1970.08041974
      451.79798427
      490.71589668
      -44.04295307
      1229.11898608
      334.26339362
      2694.68401418
      975.86214139
      953.63600642
      -997.52071735
      26.44083065
      -17305.06999468
      8027.89040906
      6886.21069216
      4669.66487244
      12105.94492609
      4094.18252727
      6651.86764999
      14485.70298628
      15821.86491180
      10673.32179262
      11927.81983072
      6138.09741703
      3388.94952366
      6591.33697959
      5276.85513189
      7048.56031524
      14270.07222423
      8098.68021411
      7081.54117527
      7435.96520284
      4356.14784758
      4364.31608508
      5783.55976881
      10057.29187422
      11085.36092440
      1408.80011326
      17809.24687914
      1032.93458044
      9005.03179386
      7416.65202828
      8353.44330520
      9493.19329263
      895.77019184
      3943.27960001
      8739.06539629
      1989.68691375
      197.94975150
      2940.60065748
      5075.66360481
      5926.23145866
      2517.12427098
      4630.49463116
      4608.80163409
      1930.96658068
      5221.76750495
      4264.44560157
      2474.39894174
      2065.85133853
      5396.57388685
      1978.89450525
      5113.00572384
      4347.14152980
      1223.71736619
      359.25526827
      3259.72627052
      3191.66814249
      1284.41604875
      1608.81642806
      226.28732901
      782.89625039
      -1192.01840092
      1157.13767335
      -332.60088108
      886.25599913
      965.22887666
      -583.58033080
      -28807.02041058
      7935.75875770
      8718.22783850
      5427.86467033
      8129.87624099
      4667.54853301
      2691.67073752
      3244.01736806
      15500.24949261
      16822.62156603
      10304.84439816
      7371.51195104
      7415.01319360
      7136.07459467
      1800.50182794
      7244.49250022
      12360.28954177
      5939.89779436
      5469.40406529
      8667.53206621
      10046.32794107
      16202.01148011
      8539.31857315
      6631.43654784
      7043.51993334
      5351.61284526
      3521.21038738
      6065.68064987
      4551.62743859
      6773.74527182
      6918.67222585
      5876.98359376
      4023.55868317
      6047.32317906
      3029.89341153
      8354.04328530
      4930.82906148
      4919.91359609
      3081.22242827
      8381.82020853
      7696.71699603
      -214.61491945
      5085.43942496
      2532.16453847
      5048.17209795
      2706.80435945
      -50.41677380
      3803.41996470
      2602.86373002
      1554.74240102
      4589.05234425
      1380.29255762
      5203.44311980
      2040.05992170
      7187.37051829
      3172.51478908
      638.98072325
      1457.13475559
      2883.55852180
      5621.79448418
      970.67389184
      3125.11041546
      765.39355534
      511.41704712
      -162.44311288
      707.38239990
      12732.36655522
      14612.23792168
      5918.66139350
      1909.33565598
      3549.33782973
      3812.85625926
      10130.34309176
      6431.11438583
      20918.92556451
      6997.52481893
      9539.18979613
      9935.39887615
      6272.26984538
      13017.24475553
      3155.51885881
      9016.65622796
      4574.94812238
      9770.69996131
      8846.81108319
      2850.76807199
      5868.40542953
      8068.46841520
      9539.19063649
      5365.30148921
      8552.32147531
      27.33819637
      8496.28641554
      6777.96061852
      6523.13566998
      14874.28915881
      5661.53746433
      1647.79578387
      730.90332573
      6643.67519806
      7726.66273296
      6691.27459069
      6112.03612189
      7511.88829539
      2577.09628637
      1845.14646540
      6338.31098034
      5913.13848438
      4425.65247064
      4045.02379708
      6394.24049688
      3179.56960102
      2645.19402172
      3295.03383376
      4085.73032958
      5117.78216907
      3299.65519960
      2690.27721391
      4117.49048915
      4553.12806273
      1388.15929695
      5782.70519595
      2211.35291918
      4620.42380491
      2788.97708995
      2724.10807909
      4771.06528421
      5569.97354331
      199.31259139
      4804.89416843
      -71.16939278
      -31.75347224
      -18063.76538625
      5918.11953638
      4633.80013606
      7272.07083160
      16452.91894817
      5613.50284206
      9057.97624989
      7865.62496690
      21141.41806875
      6830.03606904
      10618.32632834
      17044.78101466
      -1660.26575677
      1524.25114974
      10564.36839749
      10945.82029339
      8198.22501138
      4179.35827316
      5445.23049392
      4043.30886587
      11693.08099726
      12392.14337568
      4694.66530684
      5627.60699300
      6031.84791070
      4372.02423153
      12681.56536399
      5746.52835314
      2923.63360832
      11005.58370519
      9244.74808265
      6152.35484060
      1496.32272101
      4502.65911417
      4073.20756142
      6693.78259449
      6574.34996842
      3544.81418210
      2723.06169340
      6682.92620290
      327.73933202
      6356.61920935
      3345.56333965
      5392.73110446
      3951.35178255
      5201.36268599
      193.44130420
      4965.30773384
      4610.78566792
      3481.87265821
      5459.96858215
      6187.45107241
      4189.38196653
      1263.42367519
      1736.48115885
      6199.75370978
      2854.58406297
      3571.08103481
      2538.05178809
      4598.97636246
      3247.00630670
      3479.51565171
      1452.96957473
      1833.83383083
      1062.48788627
      -367.95733618
      -35532.71009678
      10136.89151106
      20130.43792213
      19131.74654114
      4215.00125332
      10604.16738716
      5773.47197681
      16421.68155533
      10761.17299106
      14299.33121170
      11059.61854176
      4974.65785487
      1299.64752928
      9122.93336940
      4157.94676027
      8270.67121063
      5071.23584770
      17254.86131093
      8042.09753070
      7458.79429604
      1202.37482979
      3371.41222835
      8166.20077027
      7276.72570256
      7974.75015645
      7168.77061474
      4798.13236830
      5333.20599930
      7460.68352077
      3679.73777362
      6215.25922072
      9011.69528114
      4917.67771905
      2716.26902819
      879.09743225
      3567.05548287
      3076.45168424
      4367.35831498
      1728.76185468
      4204.02503633
      5725.48187306
      3536.33729259
      331.95759161
      5528.79673063
      3177.68433501
      2906.41950516
      4221.57960486
      8437.47492066
      -2028.74012611
      5567.59952834
      5020.85364042
      5147.44125830
      9391.43965874
      887.00762283
      1314.49984498
      3416.96208102
      5044.91560216
      8084.13711028
      3131.58237382
      2518.25604623
      3557.04324467
      2426.93835999
      -29.72036365
      3079.61383809
      -91.80451697
      2963.17397465
      -32327.05726218
      19878.69215587
      7296.55328968
      6152.70721342
      9344.03756999
      13119.30174862
      4365.35676322
      5676.07296262
      11507.91022763
      6742.11297821
      8103.43858669
      6738.14021021
      12162.21199822
      7798.73326337
      3570.47171530
      11307.84522665
      7856.43814693
      9188.04907916
      6181.89302254
      7269.80093554
      12947.34712188
      4400.25043797
      5842.53692544
      3606.27304782
      4078.58920214
      6890.61587720
      6131.45398034
      12243.82190667
      5708.74453869
      6553.48434679
      4420.21666684
      4728.93030118
      5276.01329303
      3114.75779355
      8936.33174177
      12168.23425970
      7154.81345855
      7918.69579557
      5159.05356345
      3031.83577351
      3936.17088303
      3277.37137194
      205.09053362
      4179.76356573
      3340.20658485
      3503.32283208
      880.06928351
      6505.56331583
      4176.89332934
      5657.87774948
      2900.49437032
      2845.72678550
      4878.96835574
      5970.98621916
      1894.81111579
      2371.11939805
      2481.88373948
      5420.12196046
      3314.16365952
      1302.01696958
      5245.10637954
      912.52620827
      1278.77156425
      -1449.74583609
      -38.71736011
      -2377.70369674
      12446.75514853
      18560.73199260
      2414.23780307
      14235.17393270
      9770.35286465
      8383.60635692
      7612.06588126
      1454.03186629
      7245.27465108
      15855.54000568
      7671.31358720
      8789.26741406
      -11155.10650777
      1810.80190520
      13712.69764789
      19539.73266054
      -4108.65789392
      8669.07137245
      2228.41039716
      5927.05200788
      3532.37789523
      7057.16743971
      2208.49293549
      3193.27515447
      4796.26763372
      6885.01042663
      4610.26600955
      5285.60671749
      2311.93922804
      4912.00088680
      7321.07020231
      9229.71148010
      7878.51804043
      7864.84835192
      -1264.32936265
      5305.77797929
      9329.92188203
      9629.99233515
      2203.12527568
      4990.72396878
      5449.36165249
      7200.23367172
      7147.02330631
      5990.13561185
      4677.72666143
      424.21237481
      4198.18385640
      1895.55025192
      2360.44401038
      5984.91839241
      3477.70822070
      1879.71074092
      2387.04797344
      4610.66706578
      2413.78809312
      2446.09383676
      3168.25588015
      1832.31857391
      3398.43638060
      2405.42992909
      4301.66910875
      2494.51697683
      1744.31928147
      -1535.10217971
      828.38587215
      401.96380345
      15214.09738850
      9985.45021434
      11151.18635033
      7893.84746902
      1569.32088835
      3891.11245667
      327.93496555
      13420.74959730
      5840.10917237
      14631.31725824
      -3130.15633550
      7310.35724021
      1928.96931234
      10746.70645721
      9360.37556635
      554.07500812
      4870.05479692
      1996.42659791
      6876.59715086
      742.29670536
      5590.25947712
      3747.60478683
      2679.00015409
      2703.32561080
      5780.41759727
      2014.56368944
      8232.52776472
      5734.64957777
      10078.36760598
      4963.06071566
      835.43029189
      9363.06591165
      3866.58406533
      6494.74080876
      6615.94303326
      -881.97100065
      7558.75078976
      8017.48823068
      7620.59062253
      2446.60809433
      5655.12184173
      6124.52110295
      6734.67621004
      523.10617306
      7063.38166061
      8858.34094019
      7215.80184378
      4785.34294034
      300.00150379
      3107.21062428
      4781.46030741
      3757.08624595
      2413.02534378
      2817.86610452
      3002.20744395
      1791.46552278
      3894.82962189
      1935.24823620
      3176.17131949
      2058.48504281
      1769.33813040
      2054.38445382
      1574.46676218
      -609.36501463
      915.51566370
      322.24542370
      6205.51101645
      16608.36342972
      12685.61721256
      13939.92400774
      10857.50612105
      2767.10976902
      2266.08019324
      7850.22573676
      5754.58957944
      13067.64316619
      5017.13491408
      6495.39671852
      -4954.45639787
      11687.73911313
      4216.55030623
      5856.85431824
      3067.63762151
      9326.72382462
      4920.09915363
      8151.48124480
      7027.06083569
      8789.84817496
      4513.81309884
      -163.42002702
      2030.51040893
      7956.98749151
      2740.60014512
      7188.04715035
      3379.15869847
      5121.99441875
      5823.85830168
      4054.64080931
      4020.41161697
      7449.02687361
      5706.38171860
      4816.75036378
      3580.02592482
      6623.30907822
      6471.56880174
      6377.03863450
      3031.75325007
      6281.24428045
      5668.70084411
      2879.89659490
      3807.18547188
      8763.15870154
      5153.90178231
      5122.77297801
      6238.96257847
      5832.33852393
      527.30418287
      3381.48216948
      3726.41069020
      5979.60294808
      4660.93363443
      3293.48584589
      3018.76735091
      3351.33398255
      4821.26507061
      3461.41373966
      999.83884267
      3688.18097275
      2644.40470386
      -394.89957329
      -1132.83214055
      116.64534721
      15839.04055215
      10543.30757676
      6449.69864369
      7000.23055125
      -2513.99325458
      -7869.01798970
      -5574.62987514
      2005.63247462
      7871.15000256
      17431.26089795
      6676.80714689
      7170.44842627
      4121.52292003
      7473.86353285
      6253.38247491
      294.94494169
      -88.97088506
      -583.16249379
      2877.24287462
      4321.73376078
      4429.09936395
      12543.63946921
      1732.79233934
      1706.23971830
      6827.45293617
      4877.82211678
      5047.05692112
      322.57004899
      2821.24638509
      10320.14473440
      1339.00611539
      4544.01017998
      5123.43186500
      -133.43127602
      5189.14530446
      3702.59491016
      6348.47477174
      2829.41543939
      4133.52412531
      11569.31497927
      6426.93663135
      2408.83932963
      11065.93502884
      4098.73126918
      1548.90798650
      4892.87047356
      8551.30450890
      4863.44438955
      1683.23068452
      4668.86655803
      6003.50914510
      6097.83909835
      996.31253038
      4997.28358249
      3874.60930426
      3341.59134091
      1287.04265714
      3134.00358256
      3905.50332999
      2348.19215445
      1433.36445939
      4030.96662782
      4956.48789570
      -3906.73535269
      -3936.72370461
      206.71505034
      16536.29495470
      22544.15532471
      15038.63427909
      4166.52713780
      1544.59921661
      5365.23203479
      44723.86404193
      12427.64433606
      865.92136391
      4223.52618356
      5239.31827403
      3047.08842423
      4645.37819116
      -832.79315244
      3380.43334211
      -371.79537008
      3497.97630999
      8493.90979405
      6903.93335988
      9507.08574471
      7202.72767812
      651.45860639
      3874.00945304
      222.51316833
      8789.70481721
      3639.43610001
      679.69862085
      8882.16126957
      -2662.53722364
      3578.97441432
      1711.81464574
      5510.33342023
      4825.76878406
      3338.00431638
      5703.32073173
      5890.45021785
      8083.16892406
      3026.85137837
      -1364.57753076
      3233.35674287
      4920.49742568
      3973.89597221
      4205.67434393
      6941.83612584
      4775.66819175
      4703.01196527
      4299.87318326
      5625.14840928
      7409.79869710
      4122.32015772
      5048.88906807
      3994.49497203
      2464.02964244
      2777.63156900
      4815.30609315
      4473.41429302
      3129.30823305
      1919.65750957
      2947.44243509
      3168.69683031
      1744.82814685
      1942.09254221
      3504.87751270
      -1314.16967975
      -540.96333031
      380.90842704
      6441.45326481
      1793.90730780
      18947.97021773
      5384.78905828
      13914.48219115
      3396.37814095
      3566.53281703
      8774.95574520
      4254.09162836
      10186.76149655
      9597.63740289
      10837.51983768
      5429.81042979
      7697.25833680
      2018.28635871
      5694.00440094
      8037.93786460
      2712.21120774
      5532.16397519
      9530.39999008
      3037.78772206
      4850.58004936
      -2539.43283510
      -1671.12399703
      756.01836981
      4176.38137334
      11281.55503793
      6778.05361670
      1243.76907859
      7683.72855322
      4897.77285131
      6988.44159058
      4022.30027688
      5345.07340127
      5618.55052262
      6865.08333764
      3575.60039620
      2805.58546656
      -221.19730656
      -205.44018764
      3031.55200057
      7794.87230328
      4866.36787806
      6077.04697141
      3991.74001539
      -1002.30504424
      3006.25646081
      2843.39927463
      5462.68673431
      7951.60545507
      10312.03150487
      5185.59383013
      459.98511997
      2887.91722772
      4285.96702629
      4364.57748253
      1382.60301625
      2092.67609690
      2794.48906428
      3453.38829356
      691.70293472
      2095.73115424
      3119.87922558
      -797.33490823
      1172.29529477
      256.87958586
      10103.94339928
      6671.64139318
      9743.27951979
      4154.48221007
      -2286.75395183
      1418.58428273
      1227.94097074
      5625.21956347
      5022.70218360
      3319.82626825
      10862.93048509
      -1050.10748555
      710.09046591
      5739.66232127
      11059.90397751
      6813.42126673
      -463.55941635
      2969.94857186
      -2158.37845533
      7226.03666869
      1772.27720728
      -426.44909663
      6609.76312690
      -449.65177386
      6313.90501999
      2303.42556562
      2949.59713602
      1431.58921975
      3277.55616849
      5058.86377224
      4917.87333034
      2828.46022916
      162.64282817
      2666.79453431
      7334.56936137
      6836.23299260
      5044.80137779
      4592.39278473
      -382.59744597
      6330.44443951
      754.09420981
      3022.12809580
      6739.14494022
      6559.57677020
      447.88027489
      4137.13110676
      2109.41275565
      2297.54342977
      4924.75921755
      3568.51669910
      4969.65763990
      5341.21439428
      4590.29567350
      4745.76384010
      5688.85344652
      3474.38698866
      3917.64033518
      963.46388986
      1411.34898684
      1447.66975754
      3217.08074021
      457.51167091
      2492.75844788
      -258.02083669
      146.58649617
      -844.70529248
      19006.76392533
      -9815.03359586
      1713.09496462
      5112.72412360
      9025.04646304
      6876.50948123
      4124.68567975
      -3662.77527752
      1401.19396264
      -2318.27902173
      2476.91085978
      2742.44952453
      7105.46922271
      3467.52032125
      -2194.31617761
      4435.34074979
      -3100.12940960
      4046.28569179
      359.73026562
      5776.10634803
      8711.85412803
      2571.31867622
      11986.01664270
      -2773.13365836
      6056.90069883
      1555.72976237
      2167.31377686
      4291.23032339
      -3078.18362373
      -4390.85486438
      606.53864676
      6662.28665211
      1744.37468528
      5207.17915926
      -2167.34116854
      -1701.56447644
      2511.28787233
      6023.41649446
      4010.65060431
      -654.17782925
      -5006.03775865
      4203.88400780
      4593.10016566
      4259.65458068
      5007.69315156
      2967.49460532
      3695.50906649
      1724.80572388
      3973.82867094
      271.44905444
      2943.35164281
      3182.04660773
      4201.91371320
      -536.32894361
      2607.16246913
      1045.52407220
      3789.89873263
      2120.81199610
      1906.98094643
      904.23442942
      873.79577510
      2841.91408475
      1150.57836718
      -1243.07595988
      -693.58726025
      -2638.00407291
      11180.73100234
      1351.27528579
      4585.10592344
      3657.81967171
      3545.91392958
      6591.41834455
      5840.21593736
      6827.15882153
      705.50876976
      3373.36311189
      6331.59657960
      6857.49355893
      6686.22789974
      2525.01005302
      2129.69619616
      4559.51858081
      9107.36485932
      4867.38017465
      -289.46660088
      2454.01842529
      6605.85059830
      3995.73062562
      1575.61970096
      8261.75027811
      3337.22781695
      2677.71648719
      6169.50441379
      1538.91611378
      7148.87437421
      2766.52238037
      -324.32736181
      -2306.69133888
      -2078.84511454
      1448.37506873
      5505.52571890
      6025.70796919
      1638.62071614
      2845.28392923
      4599.56881983
      4801.61970757
      692.26047487
      -267.60876425
      2461.40021490
      3071.51891009
      3174.75993438
      4749.97319177
      1895.15239142
      4067.99290308
      3003.94964566
      -69.65062174
      1910.76614637
      5191.18457653
      4837.51204591
      5972.34931901
      3138.69237768
      4229.69380047
      2514.19645416
      1202.99567660
      -62.18724937
      3550.52467842
      1172.94265421
      3331.69540016
      3401.17638327
      -3785.24694370
      985.42151737
      -273.03859568
      18484.22007202
      6527.60098550
      -860.00560469
      9428.93750488
      5973.61226551
      6570.87485825
      250.02765220
      2448.90932092
      -7187.66684023
      -4176.33835567
      6674.38623865
      6010.03620846
      7254.90867347
      6080.64971658
      824.12499599
      4230.47996648
      4706.85412531
      -451.94710435
      -1084.86931031
      8126.12358532
      -837.93641854
      -427.73267660
      11810.96763476
      2419.59158643
      3396.21684700
      97.45841127
      5693.09283699
      2866.32902169
      2077.01840246
      3236.72150890
      1049.81144422
      7415.12950440
      -155.07600892
      -1515.24595222
      57.48573008
      1567.99971694
      5084.03815649
      6413.65465537
      -545.87746715
      3431.56296574
      5157.98792467
      -443.82922898
      2769.27085297
      2870.40950251
      2940.70500137
      3191.73453666
      2122.32183372
      -275.12905885
      804.42919110
      1528.26918252
      -322.77260245
      215.29665540
      1527.12890329
      4044.66463319
      2497.46771843
      -2799.60148778
      -117.53966580
      4801.95273686
      4754.90497810
      1647.77412457
      2613.54301465
      1351.40390678
      2560.91890736
      -1266.61977840
      68.58043787
      -439.30618781
      -19965.59071168
      311.67575232
      8207.11354972
      3162.37031947
      7453.14614867
      1792.50764325
      8571.28418544
      4447.12794106
      1094.55206654
      -5764.74694502
      -1169.10435419
      10148.91521463
      -295.26966732
      3525.01622215
      4685.85665491
      -1635.08604350
      13587.38775875
      -2770.04730890
      4518.95778730
      4638.97992225
      6674.12434659
      3538.21841098
      2087.83555306
      4243.02542830
      4979.26701063
      9367.05128782
      1698.78361763
      3361.64000289
      3538.15728693
      -1202.93309932
      -3483.39336139
      -5803.29817255
      1468.44377138
      -597.47786084
      1554.28946259
      121.00956418
      3333.08960213
      6343.22934023
      4357.44347214
      -2718.13549937
      2670.39547005
      -181.05186607
      3566.04036695
      1193.32351862
      -582.49865032
      3753.14839588
      4257.53889700
      93.70154373
      231.11079612
      -1839.88876491
      785.86703182
      2725.95377956
      1277.52778596
      4071.56453981
      3896.12245291
      554.66511556
      4624.23796627
      2608.51124285
      1744.64696945
      1101.63223155
      -1209.98915204
      1344.19240570
      283.44348057
      303.94087453
      540.34012945
      898.03360094
      -18483.48255714
      -21300.82882008
      3784.87442470
      3529.18847082
      3226.91827852
      3395.26679065
      2921.75302942
      1283.71386783
      10089.36922832
      6265.30990841
      1612.63110373
      -1616.16653194
      -515.25647307
      7452.60294854
      2033.88521546
      4276.14566507
      3111.49811746
      7026.35627014
      1922.71636727
      2846.80021631
      -1134.36431146
      2351.46881663
      5236.90719638
      8173.09503315
      -23.03219439
      1747.62427195
      1712.84365015