<?xml version="1.0"?>
<VTKFile type= "UnstructuredGrid"  version= "0.1"  byte_order= "BigEndian">
<UnstructuredGrid>
<Piece NumberOfPoints="5123" NumberOfCells="5123">
<PointData Scalars="Pressure" Vectors="Velocity">
<DataArray type="Float32" Name="Pressures" format="ascii">
      -1440.64580831
      -20650.74634012
      -31427.04181819
      -35561.77368429
      -25076.91863939
      -7000.57467724
      -20482.92742986
      14550.66051584
      14373.36519989
      -37979.07088609
      19361.39476687
      -24929.46055353
      -14979.81165262
      7775.68082468
      -24289.64383439
      13721.93517629
      -28172.76905675
      13074.87126455
      7409.97331416
      -19896.22698744
      14647.60606555
      5667.24968592
      -9061.45373672
      9403.72314522
      3895.86500737
      6950.49145111
      6900.73365094
      -435.96596369
      6441.35749348
      3227.84644525
      2726.19907531
      -22222.76892854
      4924.55289619
      9114.35381896
      -103.47480243
      -5300.15860229
      96.55287351
      1077.07975699
      3221.30344116
      3739.93588499
      -502.16004914
      1068.87337383
      -2127.20451722
      -2776.98743466
      -1668.64627089
      789.95129998
      1127.71450791
      1128.63120808
      3640.65694158
      -3131.31864434
      -2607.59257699
      744.20483507
      -810.57659529
      983.41616135
      -4817.98180771
      2235.11350316
      819.93374554
      -20.19365060
      -2372.68154622
      -573.93522482
      -1063.78507687
      -1911.25770577
      -1695.94633358
      756.54328324
      -244.35224352
      722.92260332
      5494.55277641
      22921.58793885
      14342.14313725
      13198.72348279
      9280.72345948
      6121.82384696
      5757.60734429
      9817.84650563
      3939.14746581
      9744.72337709
      4035.42740425
      4471.68298610
      5809.89419843
      3687.56357028
      1850.55640435
      4842.62888160
      4542.90810493
      8450.54029204
      7818.32341324
      4847.58446717
      771.63050168
      5726.23467994
      3014.82249702
      2808.12463852
      2155.01735537
      4985.89617060
      -891.44165115
      4933.54761075
      4478.88902792
      -3412.75177761
      4901.53059953
      3014.93466517
      2820.90243870
      1732.43732608
      1249.10910174
      2947.58398328
      2004.96771417
      1300.90903223
      6668.25072462
      859.20661260
      -1498.58104436
      84.26465459
      -5246.93445018
      14115.14303797
      -14345.31598920
      3376.50665412
      4554.26139515
      3553.03489390
      -1000.04915311
      -1463.96983361
      -920.08410874
      619.84188579
      3675.67421209
      -3393.28619215
      -5181.73095777
      6983.15474186
      -1830.78956545
      1542.68102441
      -4879.07414469
      -458.65614870
      -342.08739657
      1042.73455020
      -1191.51894028
      558.83911077
      938.11753539
      -1066.00098698
      7141.82607739
      5741.94023316
      17163.09775283
      10745.93429199
      8965.59271145
      1905.84242053
      9796.56690863
      6639.14992101
      5308.89401648
      8377.50746326
      4852.96709091
      4072.37466811
      6368.95274765
      11084.33339471
      12842.11201416
      8941.85608485
      8384.77489729
      3232.58145620
      3043.91598440
      10009.37959979
      10026.35136363
      6311.43034227
      7151.83249254
      -3133.70528158
      3137.13316694
      12004.02484057
      8946.67589219
      373.34565753
      1879.52522364
      247.53426408
      6212.68568917
      6980.32368717
      6701.69482691
      366.35792977
      4350.84346977
      4173.09224023
      7514.57478708
      5360.09385828
      2171.07236218
      1606.42790127
      4805.25638733
      1630.41618767
      1350.05215882
      4504.96746179
      36.95004904
      -1052.81077573
      5889.50918640
      3461.04082246
      1201.89288379
      4830.75788164
      -325.23310012
      -688.45014451
      -1590.09723068
      2210.80477353
      1025.96291714
      -705.74737786
      3154.22447738
      2012.75542247
      929.83123218
      -2756.71184789
      -766.61176901
      -1147.69321870
      -176.15962401
      1711.98204002
      -1945.48543280
      1278.80653814
      6216.30233060
      6520.80265977
      6870.92771037
      13938.32711243
      11239.37912077
      7697.68243085
      14229.36742876
      7605.82638740
      10909.70736734
      1123.90710135
      11242.10839862
      19812.00983320
      8860.22571241
      5682.24015600
      8199.21910464
      7617.74757049
      10315.21021716
      10223.34660673
      11676.01909178
      9655.02567377
      2926.50732886
      10697.98598267
      16463.23217053
      13307.55085993
      8952.52937246
      16676.53248821
      4494.33974877
      -2660.19949882
      -1521.85705656
      6164.93023538
      4835.26890751
      7966.34152452
      7467.67150684
      5995.87789533
      4277.94211974
      9011.74221128
      8178.69925841
      3701.72558672
      4855.42922853
      1068.20217426
      859.83301779
      5493.99498921
      2714.82116983
      4025.03532357
      3120.25205217
      4060.56732298
      4306.99594290
      2167.42776234
      1258.05086635
      2387.57392537
      3197.34658285
      1089.73967594
      2344.75349923
      4237.65855372
      3259.26336735
      581.24696113
      -37.55841142
      3149.86222651
      1967.97609826
      1893.17373978
      -1801.02741233
      2121.18183135
      805.25991434
      516.53190331
      899.53500025
      -125.42795387
      12559.94926301
      5449.87299734
      30044.58964642
      22687.79845102
      18770.30364660
      21408.95706734
      17967.71636474
      21009.08782503
      5147.69422096
      14775.01283492
      5912.67089465
      6354.22478369
      8766.05044231
      6756.21514170
      8598.83155786
      16347.07809825
      7270.19916536
      5743.89341147
      5671.59544227
      13123.61374823
      8267.15421333
      -552.20429148
      10671.10095091
      4898.65359319
      16529.82109035
      27138.85987824
      4611.80024693
      -1707.44006627
      18840.09127398
      11866.00648586
      5118.63861810
      3089.63903604
      2359.14083083
      5716.62605971
      7988.20371483
      4065.92141481
      15293.56021943
      9537.36910064
      3604.29922397
      -499.98786826
      505.50678959
      8658.90507789
      3498.00682758
      6082.73420417
      5725.90637674
      3008.27867763
      5598.38253136
      3720.83729477
      1275.63340072
      4037.88128424
      2040.69097214
      2279.69592812
      2140.03683571
      2083.00124708
      1579.96580212
      1601.43234482
      6644.53514263
      2476.88395195
      -1675.55858764
      1393.27090065
      453.90556201
      4289.66104867
      -1550.69700656
      2727.97829901
      186.26140420
      276.85116896
      -17305.06999468
      10363.30219092
      7893.14333133
      5423.14051998
      11826.90525826
      11264.29433915
      8188.50135442
      12406.40069243
      17791.90011883
      14637.06761268
      15624.48347377
      14187.29348109
      -9915.90579141
      8121.76666811
      11402.06265747
      7393.24922380
      10935.11560080
      18042.58316152
      17050.70158746
      11731.07394280
      6228.19035782
      5057.89162138
      1663.09154982
      12052.15000070
      4762.57389872
      10005.60221866
      15672.62573157
      4886.00825271
      6219.96457372
      82.90775687
      7377.97419696
      12134.71604003
      10340.14070167
      11031.60597933
      4164.72204960
      -171.58838771
      6544.70306988
      1638.53980285
      10274.89090705
      9719.99260088
      5249.12676272
      4010.66134494
      2846.43117848
      2391.59144515
      6968.96765513
      2163.70196799
      4223.94829433
      6056.98343948
      5370.36065150
      6811.26488632
      4004.96328650
      185.79585951
      3918.55078013
      3381.17235831
      6429.97560943
      4920.90891126
      3412.76881204
      3551.93072642
      -421.64634479
      4022.22674956
      1361.74275311
      3664.93883087
      2332.72855493
      2049.60345569
      -1056.14042359
      100.24961139
      -28807.02041058
      7371.92255790
      9386.79087184
      5382.70980824
      6825.46252260
      4523.13735611
      3449.53043587
      5073.93503661
      13404.99791914
      11447.89304432
      11112.23289684
      5530.65288440
      9019.97982114
      5318.95610783
      7647.94406225
      12238.40688356
      7149.91301570
      5421.71961603
      8714.19748041
      11087.19673129
      10399.63711698
      9119.20320331
      4495.85266434
      9833.20628692
      4320.26035244
      11925.45796263
      6362.78586814
      8233.26389958
      10670.87743057
      7449.20896666
      10686.12321167
      505.40442712
      6001.60612729
      8334.65559201
      6615.49675222
      11770.60647613
      8357.34559482
      4348.14519075
      1349.30518792
      7880.58760593
      9772.43837843
      11953.12508841
      7618.53251507
      5494.67471592
      4448.86809213
      2174.17577170
      7619.01716833
      2552.92413478
      1347.15559528
      9326.49256644
      4764.42679687
      4574.93143196
      6730.52504138
      2059.31357549
      5613.92684365
      3939.84192992
      5245.77575460
      4857.69332360
      4056.95102664
      2311.15146985
      3912.29347307
      5571.56865793
      847.18043416
      1226.80278935
      -455.12153368
      -1931.60391724
      15262.21887251
      15939.59951295
      6560.53998267
      2687.14845932
      4897.32889051
      4795.39346305
      28545.35118451
      12727.73686497
      29387.34655917
      9636.93081954
      1711.21146158
      12535.14093609
      2448.45970578
      6015.99347306
      3369.22435340
      16332.13733383
      3376.75513291
      7404.49535350
      5168.44021852
      7161.03481680
      6197.27569488
      15624.67946333
      5704.85505055
      5520.92406142
      10031.97957874
      3584.36264024
      2243.78025063
      5846.01394088
      6846.51905361
      12511.61691952
      66.12388502
      10242.24015236
      9353.35217508
      -951.29228330
      5252.15122500
      4307.67159065
      6210.24819032
      13046.03982345
      2483.95280646
      216.05354755
      8785.97601811
      4833.99966795
      8818.79676498
      7650.21128513
      10460.86538845
      3480.74411408
      4907.17434823
      7840.78755331
      7395.00987473
      8251.86829133
      5824.15327381
      5761.27174249
      4928.70924366
      6572.80010609
      2785.78166489
      4683.94819491
      5342.12986225
      6363.43534122
      4046.96943356
      3943.82827963
      5359.61622020
      4305.82790346
      -182.74890446
      1126.67199479
      -2160.24996994
      -370.69551885
      -18063.76538625
      7166.29537800
      6333.21840352
      9999.64442211
      8897.03711563
      2060.68719157
      6399.92104131
      14255.42334394
      18828.06597900
      9693.46368378
      4837.48234553
      7429.24720661
      2932.93664904
      10514.01292998
      15297.54105048
      1995.51947449
      8100.70171876
      5088.78253643
      8433.06779998
      2280.89189670
      8168.39826189
      10547.89083751
      7522.81604854
      10087.57808532
      11050.52273362
      4715.19223861
      7233.60252745
      519.65328154
      7157.64010803
      7914.81570485
      14652.69776063
      4190.77083757
      8795.10555277
      8661.75509885
      6055.68893773
      4141.65207032
      821.31213499
      5477.13305786
      10967.62671010
      38.06216414
      7520.21579882
      5825.70540251
      6391.94553751
      5300.41911890
      7141.83358804
      5069.66733661
      7879.26338862
      7454.30665673
      6842.77545622
      10667.75935063
      9933.93000509
      1973.24227337
      3871.80783402
      3523.63949867
      4883.22363106
      1850.78984796
      3414.18720485
      5180.87039057
      5933.00426186
      1236.39602255
      4368.18211659
      4032.73988554
      873.04626435
      2358.28633544
      -917.67774893
      161.86207320
      -35532.71009678
      12282.83850409
      17987.73854764
      13737.75464794
      4138.10712278
      4087.16091391
      15952.70822984
      13060.26296227
      40413.45663699
      17004.04162359
      3087.84736307
      6637.64271223
      6700.11690829
      6590.99994759
      414.19068153
      14614.68467925
      5311.13986785
      11288.62193705
      5887.74327697
      -241.17683640
      2866.95410467
      102.12069150
      9470.12795353
      8718.31013111
      10522.51068501
      7186.82660065
      2996.72116116
      600.83513008
      748.33799946
      8024.89875926
      6333.29396232
      12754.12100525
      7789.06302831
      4935.23868717
      3603.36149881
      8424.76288860
      4465.65984107
      3799.96412788
      4446.80548401
      7754.80560305
      7686.98424544
      3878.53734486
      4529.13906546
      5030.09430919
      9626.41028199
      8914.63229232
      5322.37019352
      2479.22648830
      1988.20755404
      8870.29825064
      8438.21050376
      2003.39321224
      -150.52534024
      5717.29527595
      5885.17155959
      4408.27696246
      3980.63439079
      3423.33367651
      6130.29988931
      5003.38217391
      -121.19338712
      4179.28832343
      2525.24589641
      -1601.27464736
      1738.26388126
      -34.22289506
      -32327.05726218
      28086.06357957
      7799.04758578
      12824.46925793
      11936.20690790
      10059.04033853
      19434.80734071
      19567.31308621
      18617.68792543
      2452.37712485
      4634.38149948
      5626.44577011
      14999.45822690
      4706.07587798
      13368.35542567
      9435.36763612
      5953.66448212
      755.65559924
      7690.97599411
      6390.48064418
      3897.49622286
      5215.34313756
      1418.12948525
      15145.63811433
      219.69617064
      5937.34789360
      12623.56498006
      -1085.14856731
      6486.84420061
      7104.16228235
      8826.49371983
      1846.73429951
      10272.90390060
      6453.02140790
      2486.82991135
      5882.09952214
      4386.51249688
      5969.97571735
      8175.92454115
      4884.99705864
      8253.72026803
      5902.42176302
      5883.18371571
      5500.80080937
      5634.23985827
      9071.01347413
      6956.55041797
      7054.59725783
      4852.68644913
      5287.68370509
      7160.25828123
      5714.32645658
      5260.17501785
      4847.72100104
      6091.24530743
      6205.49314521
      3590.38462995
      635.37665417
      1399.69262430
      4321.15770332
      100.16697634
      2327.79863927
      1968.01177069
      1019.62000641
      1570.48151172
      -1307.09764326
      18932.67273848
      12930.95196580
      7281.26413312
      13716.54367398
      18150.70517456
      4529.12367094
      11788.37080529
      11450.97634068
      11233.59976369
      9931.25458518
      7840.15699548
      3776.60687194
      481.69129663
      11245.72752016
      10353.30213431
      12200.29095529
      3185.81900292
      13280.47792282
      5717.27841104
      2439.06091022
      238.44779187
      8380.70985392
      10253.60299163
      6584.93622184
      4489.30943433
      12537.48438173
      7536.34504349
      7644.59979490
      2454.52654599
      3706.33981040
      5666.63489355
      3520.01010508
      4892.84790073
      7628.64419076
      5536.15929641
      5401.04732049
      8222.12810223
      5814.03113058
      5156.58037154
      6862.26848383
      3552.14500310
      8425.13299855
      7787.48055002
      3984.52806845
      970.32707821
      6265.70077715
      10779.53604174
      3015.12540080
      1259.61953223
      2227.63401785
      4769.15686293
      9086.07812720
      8084.14979173
      5173.90422337
      3114.62209488
      5079.11406209
      4223.36168172
      1425.49660225
      2680.27459468
      719.80823251
      2368.52803309
      2149.60477031
      976.69775463
      1488.95608748
      166.44783059
      1187.23347687
      15025.73030036
      13858.60988580
      -1985.88211198
      1673.31880629
      7550.99708487
      19410.83532582
      12596.41068441
      13368.39624488
      20105.28977857
      2199.81756690
      15274.06068310
      1385.11086935
      6204.82458419
      6934.98898187
      8432.51105539
      5427.29560389
      2373.29573128
      7409.36203307
      7397.15693636
      9167.60810377
      5537.01707707
      5063.93830620
      4463.59212063
      7373.35108024
      8119.99451266
      11115.85412260
      10817.59217748
      -761.63049109
      12935.08539747
      4799.22300908
      7475.90539722
      9791.71314048
      8547.36200771
      6120.59898701
      3788.24300257
      9623.50838517
      9349.84063916
      3567.67607395
      4753.94099505
      6350.35261026
      6257.35640333
      6852.31374454
      7213.21830097
      7335.50216405
      7714.96385100
      4119.27043172
      3954.07078343
      10110.67127624
      8102.75612273
      3089.13999185
      4048.88745328
      4379.37830084
      6703.55058806
      3180.60191217
      4784.42824849
      4515.86628175
      4037.93375592
      2036.99458651
      1804.32460130
      3497.01678253
      1044.87590271
      881.08678837
      -449.35666156
      1252.43091764
      -2067.70271191
      114.96190824
      -2723.49193928
      11481.30248134
      7329.58589603
      8209.95172716
      17384.88089108
      7694.47980463
      7622.36194329
      16729.37962384
      6104.34420986
      7653.38950311
      2536.78729484
      -7322.48575244
      9144.18525843
      7986.26921263
      25100.26146042
      11595.39798573
      12708.04096621
      9283.63424515
      2294.08094168
      6159.34171751
      5727.13260683
      4930.06227566
      9262.01722644
      7727.20083129
      5045.70823959
      7301.21107179
      8976.26803048
      6502.28933767
      11154.32043182
      10172.07521399
      396.80963012
      4600.01581295
      14089.24578052
      12751.56886300
      8216.59910781
      6777.13123134
      4641.82439228
      3325.39985683
      6009.31365850
      11118.19430131
      9139.47877252
      4763.62361685
      6255.50710602
      4306.20042439
      5410.67808173
      5258.69954821
      6559.36021279
      5581.12002950
      4270.73191321
      4976.70659003
      5560.06221460
      6070.82433072
      5989.36772194
      4137.72626449
      2262.72504016
      3061.63147845
      4014.32169708
      -240.72258333
      712.20889410
      2946.72986100
      2127.68627501
      1076.78727653
      -128.30907789
      -479.35331463
      798.14730484
      1030.96247996
      18800.58180509
      16475.30466800
      13516.49338532
      6749.29061894
      23120.97161606
      13919.39183678
      14510.03434317
      14064.50781861
      15213.80189001
      6933.32645316
      9507.34665754
      10967.63751400
      10162.52563898
      4627.55812211
      15861.46096852
      15120.48437140
      5292.13055789
      6005.36197590
      131.15120894
      6887.64048164
      8760.98506607
      8573.67322375
      -527.32926569
      8165.43288933
      5457.48728381
      11518.97865411
      4919.25790965
      9229.76120101
      6739.85098746
      4254.89609887
      6092.08022662
      80.16726668
      7385.12541241
      10971.07286642
      9854.09030065
      -501.76564513
      11380.63728228
      11206.35363692
      -1006.44507685
      3358.07452486
      11010.43900047
      8923.90339061
      11035.37444216
      5910.18134770
      2147.97271654
      9025.93624673
      6265.60075413
      7349.50070913
      5141.11777543
      6326.22551804
      519.74979092
      3026.45997733
      6494.61490238
      2714.39336948
      468.71294161
      2950.73556733
      4966.83858166
      1872.18763730
      491.80820607
      1024.90502957
      867.47588736
      287.56885292
      100.38849302
      -2277.93222791
      122.76786433
      1293.73119100
      7518.40953161
      21110.67474668
      5220.75438859
      2519.51341702
      4571.36623809
      2467.96194915
      32212.69331428
      9865.53625137
      -6717.42012233
      -3253.22435777
      4414.56441773
      4877.56153288
      9839.59058487
      10387.01892298
      7673.64390056
      4428.60251520
      8624.89015036
      11812.73320910
      9062.91683353
      9059.84180064
      13708.18735455
      7405.06527851
      5534.78371304
      7157.98591653
      7696.40586669
      9592.29608207
      12456.88875488
      7759.32277316
      6870.45854736
      17414.01815895
      13448.62168665
      4245.78410198
      3016.77692105
      4166.91711704
      5865.78468192
      13207.84783286
      2690.65698283
      10326.23428526
      10923.56107199
      2543.89440190
      6094.97285810
      9528.62103382
      8374.16527142
      6227.28893886
      6862.34970795
      8459.70194678
      7146.98485100
      964.54113462
      5795.43065308
      7004.80674498
      4132.43209650
      2265.00325343
      1566.17486743
      3178.50337882
      4148.29249261
      1446.72127329
      6004.87732807
      5719.70951039
      1125.20513887
      2654.99663408
      -22.84011390
      794.47937535
      1150.12037306
      -1991.05333918
      -1494.41465915
      -791.37738088
      13033.33172407
      7471.74918313
      10259.36373847
      13004.22518043
      2809.45634567
      250.33904880
      -2278.06656759
      11229.36599962
      14390.60098829
      -6809.33857312
      8455.35622312
      1004.46713573
      730.82872318
      7867.34211223
      11724.84515972
      14367.49336751
      6823.41454001
      4313.86619341
      4109.49865331
      9880.72756405
      13613.22560514
      5616.36008999
      2299.13799411
      5013.34819664
      9761.33118939
      13160.84934510
      8001.55384952
      11899.64282953
      14632.63234060
      12757.50546873
      -774.48930862
      4567.63644294
      9090.38992956
      5596.00250792
      12120.26758650
      13465.51866430
      9076.90868359
      4376.33080352
      5383.87918033
      5831.69944455
      -1727.79148179
      7731.90835480
      12633.36603137
      6395.51030450
      8025.65938558
      8252.15855128
      2987.60559816
      4950.37815108
      7634.19384407
      6568.69064964
      5844.59473228
      3340.87994965
      3894.36380948
      3213.98464531
      1178.72723623
      819.30887767
      1893.45939997
      3139.55196302
      2330.30525700
      3705.34764163
      757.28938148
      1181.92813013
      -445.31464756
      -1748.72330461
      859.91433322
      -328.54150752
      19925.00753426
      7755.10209272
      18670.27728027
      -757.68653181
      -1544.88509284
      27460.65997705
      16353.59773282
      4007.86746180
      11787.93291146
      12831.74209030
      22814.70105684
      -4740.52752846
      -436.81155123
      7423.33137900
      1609.67847910
      13658.08220362
      15819.81414818
      10198.39858769
      3363.69836547
      3867.66010895
      5967.48653629
      4229.56896031
      5637.65622352
      4808.97599837
      5159.22490547
      5703.13054759
      13732.37227240
      8908.93636673
      3372.43527830
      7753.83838535
      5518.64969043
      8531.15947450
      -1051.41240011
      8166.92703671
      3785.00410744
      8954.25355837
      12427.04330209
      3760.56574813
      4282.54161716
      10614.28979414
      4873.64136561
      776.26678028
      6868.59398519
      9479.54542146
      1376.79332729
      8087.63632556
      4977.45777723
      3951.55143034
      5632.04494558
      5290.71466208
      9656.40721789
      3483.36363664
      884.98638689
      3136.46066673
      1862.29283897
      2795.60233055
      1779.48694255
      2744.76456877
      2098.12963162
      201.14340542
      1329.05187765
      1734.44227452
      1847.34049632
      -1287.79347200
      279.94992637
      -4020.20375502
      -417.10223813
      10097.95637926
      30139.58752575
      15425.11626444
      15526.59452200
      6483.20824978
      1417.67890513
      1913.30948186
      -1398.82808723
      10600.26331291
      10743.73622286
      3872.75477288
      -5275.22759817
      9537.68487779
      14426.33753598
      -12117.28624086
      15798.80073636
      9265.85450131
      -5576.74576084
      6643.82065755
      4819.57355445
      1922.44760620
      3862.50802636
      3739.28439575
      1353.06700109
      5789.16622739
      1876.37897423
      3414.93778080
      10136.43439869
      8068.95748504
      3924.81412278
      5659.75816603
      4541.92940444
      2811.38776716
      1658.55699070
      8964.13298852
      7051.46199855
      7352.20686483
      3852.43133029
      4620.62843041
      3748.63296487
      2111.27111511
      2937.17693051
      7690.89983337
      5766.83577919
      4642.29496221
      9562.34129003
      -773.14975914
      5101.84951820
      -1429.23309071
      3063.63719842
      981.38407942
      296.17609342
      2560.38208043
      1103.20267651
      4294.36816823
      715.13326789
      2578.99659060
      3991.26304676
      2858.92843811
      -238.02648417
      2292.88384312
      1711.29813577
      -982.46792266
      1150.04567721
      511.90119926
      32793.65521983
      7982.12947421
      -948.11861624
      30782.67011243
      -6373.70775197
      -156.85141155
      2562.87112269
      7105.73389094
      6919.15897207
      -964.89083360
      12975.23579595
      18071.96504522
      6627.68639843
      3341.67985576
      -4087.68383892
      3788.25711878
      9165.48658586
      -6372.65898556
      11220.98336029
      11630.79211444
      5296.32782696
      883.58138565
      2964.75170846
      6514.85326008
      5770.05862196
      4386.57894159
      -711.89576476
      3720.83216490
      1860.92513932
      2557.77075681
      7301.88338068
      6222.50049647
      5327.17483145
      9441.11359950
      7900.31057327
      2118.70979560
      2277.35774063
      6371.84494518
      6006.14121593
      3503.01729195
      6377.58627770
      7568.30145418
      3906.66799689
      -2198.03993766
      -1073.05674343
      3705.72446618
      4254.59937037
      4549.34791949
      3322.41026538
      -433.99467252
      3096.10901463
      7127.99743087
      -473.76875301
      4891.46644880
      2611.39780084
      7315.83368365
      4805.41534954
      3172.33197998
      4307.12051323
      1498.97625531
      1146.62954720
      -2423.65804124
      3358.55600472
      76.49228354
      17.69363797
      1210.09788038
      15774.50211120
      9687.41443465
      8061.66104411
      7177.55706405
      1996.66966271
      824.94956417
      -2469.06571629
      -2213.61380002
      -13238.88859866
      4546.32902258
      4385.87600418
      -11.33713395
      17091.91555519
      2834.08491858
      -6393.70810313
      5176.61114538
      10724.20188290
      -2241.88934752
      8545.50465767
      8095.51378399
      -1344.36235708
      4364.52538963
      3849.31162518
      2855.50155829
      6190.14173941
      2697.02253604
      4188.36801985
      3188.65624320
      -2568.82542923
      3096.49136551
      4368.90813383
      7508.35920506
      7598.62439894
      712.30690335
      6637.88863577
      2506.66541833
      1349.19174317
      -1418.97983201
      -729.60409688
      5268.84778635
      7945.78244549
      2673.87532473
      4814.45624383
      5402.19721023
      505.66316746
      5343.13534512
      6749.85762921
      5534.89469451
      3249.48158294
      1160.40786675
      2999.26284733
      1889.84830050
      7469.73023424
      1791.73081393
      2453.86392852
      700.28917996
      2811.72102442
      757.45169017
      2779.28070450
      1693.27625617
      2964.21050772
      2132.76753433
      2571.34104807
      139.19842831
      1147.71425836
      164.01145630
      -19965.59071168
      16771.02810016
      6796.80747666
      3405.96683067
      5313.78399351
      7789.03606372
      5965.97452287
      -2122.28819813
      3236.15305102
      24930.78923695
      952.70409528
      704.24029561
      5116.36765244
      1358.87645790
      3669.49877408
      8775.39399262
      3882.43688787
      8007.44541194
      -8169.64669879
      4769.58745911
      5489.27886525
      5256.39641149
      4786.48591002
      7185.08064354
      9652.14350057
      5537.71473163
      615.31478598
      -422.02544912
      574.00819194
      4821.61622309
      2621.60217707
      3935.08084531
      2552.85383143
      9934.20700124
      3367.35608455
      8397.72302909
      4340.28071156
      811.41328511
      858.87598497
      1739.19057359
      5236.70458724
      3985.32754769
      5435.59919795
      1424.38464771
      816.18846144
      -1536.25708242
      2590.66609204
      3962.91528006
      3438.22216980
      -672.48922987
      -1945.96110705
      2063.85091753
      4223.61250712
      6268.98696968
      408.87666205
      -1944.81210395
      6451.62208708
      2198.81088250
      1322.58759315
      2265.59504247
      2357.88075356
      -287.39117679
      4073.12388708
      -5813.08338579
      -2464.85448219
      434.92075477
      -27609.00870541
      5712.09092151
      18384.02053429
      -2020.30457168
      6785.28335788
      4848.88113505
      104.39807794
      -1615.18622269
      6119.16015378
      -5930.35239764
      7655.70549007
      -6782.11671521
      -5094.07212642
      8136.17164300
      4622.98681969
      8900.97470475
      2173.39683110
      1566.66122605
      5421.93378537
      1420.96953431
      1318.97422942