<?xml version="1.0"?>
<VTKFile type= "UnstructuredGrid"  version= "0.1"  byte_order= "BigEndian">
<UnstructuredGrid>
<Piece NumberOfPoints="5123" NumberOfCells="5123">
<PointData Scalars="Pressure" Vectors="Velocity">
<DataArray type="Float32" Name="Pressures" format="ascii">
      -912.35809429
      7605.84528663
      9154.65528551
      -35561.77368429
      -25076.91863939
      11177.97750079
      -20482.92742986
      9247.52547298
      3852.98334006
      -37979.07088609
      5552.55437834
      -24929.46055353
      9913.95167262
      3619.88230111
      -24289.64383439
      1301.49986173
      -28172.76905675
      3793.77277684
      676.92041488
      -19896.22698744
      848.22551120
      -224.87666749
      630.36594868
      419.31996738
      843.97370031
      228.82575047
      -490.79959417
      53.34617736
      448.22819814
      637.80709497
      -615.27482588
      -4994.13569458
      447.04174907
      -17726.81837601
      439.94093114
      -116.89867412
      -299.84385867
      6926.42314606
      290.13806676
      588.84988732
      -36.95352529
      -802.35422705
      -573.34992525
      -427.38841907
      -710.57543857
      1464.69720480
      2403.89376399
      323.18326810
      932.14805295
      223.57247906
      -29.69880656
      -12.82847274
      -303.48205232
      -268.07846567
      -1142.71174090
      -732.65421853
      -550.37891630
      -72.89403346
      1002.41385584
      1273.91991990
      -1218.17856267
      -666.52668389
      -863.72124325
      4411.86848150
      -785.02703168
      949.28927823
      6206.32070531
      10064.01941443
      5152.13541023
      5769.04906162
      5346.10367929
      2556.99896070
      254.72396180
      2391.07149158
      747.21657101
      824.05245921
      434.47503359
      1916.43417802
      -1008.43936968
      2597.05244519
      1522.05967291
      4531.27784165
      2658.84356798
      2700.46446017
      1780.55546068
      269.51115536
      -128.10256893
      76.48573934
      3746.75496100
      -606.73366865
      1776.97905912
      -18.66545465
      4029.30655520
      4895.01834602
      3168.48407875
      1225.89434676
      -2948.21931264
      -535.82876557
      3987.45655593
      4823.11194826
      -2688.76489098
      -1995.55544891
      1080.75320057
      1111.08775725
      -5442.90841247
      1967.40181076
      1952.19251334
      -405.03135286
      -1478.71604886
      -2519.60194042
      263.68377217
      -202.25319068
      -1661.37795808
      369.22998801
      -6053.38000959
      -1785.27175457
      2572.52236739
      -609.68371617
      2583.43031128
      3515.09645554
      2387.99315156
      4015.84582988
      -781.37162082
      -4264.19421846
      -2201.90068986
      -1421.58979740
      -796.19352260
      -467.46722971
      1504.67867967
      904.01983793
      238.75907442
      558.01469461
      6936.71996441
      4303.81237058
      5767.99266581
      2913.27622310
      7738.77439217
      6630.16254513
      1370.62892192
      8828.81374590
      4034.59613645
      4368.84706250
      2179.80361964
      4440.17360106
      -978.82752441
      575.86528882
      542.87024253
      -1041.91350986
      5954.91773915
      1252.21036462
      442.29783361
      7764.10849146
      4155.94530763
      5390.48993373
      4524.47911993
      -1190.03224767
      -2412.19202679
      2229.45137907
      3833.17720051
      -1851.63115554
      4099.39325595
      1675.37032557
      -1303.12043492
      8965.82559877
      1917.08062999
      5587.17521947
      7469.87505357
      5992.93262667
      3154.39509158
      -958.21001826
      3968.09436004
      -4685.03138700
      1495.02008643
      7215.01658239
      -1077.66130197
      2682.36782683
      -2334.81661706
      -2311.80007466
      2059.22385699
      7512.02170201
      2587.65237063
      840.15294828
      -10412.47241740
      6056.18249031
      -2593.62670327
      3853.46170929
      2743.24107385
      2248.47247756
      3602.23875577
      -131.84103063
      1345.00077703
      -353.80957493
      -2055.70726740
      -331.26428418
      -3083.00081232
      -2972.89758117
      543.15175942
      -238.03859203
      4394.38820017
      5455.00007646
      5715.26006529
      3184.05673634
      1821.66400092
      5472.11164530
      4265.91348651
      4349.45410047
      3254.92252843
      2144.36821757
      3566.52036941
      5984.62962156
      6960.94620438
      1296.47443092
      2625.21629540
      1854.50245351
      2855.63408100
      2196.12374453
      247.10298983
      13340.06764867
      -938.94447220
      2921.95083834
      6743.80626346
      2386.89276827
      4194.68015742
      4146.32834873
      2135.07169819
      363.12044851
      10.44063214
      4220.49098697
      3801.85595285
      1216.77723579
      5118.80904838
      -553.66169219
      5298.13088295
      2058.67562527
      3519.51077439
      3094.79253965
      -873.14709184
      8258.37811589
      -1516.48689826
      -2300.46140903
      -2550.37662657
      -2247.38264223
      5789.17542231
      2831.29552065
      1263.78568883
      -891.74018151
      -2061.20571253
      1545.63123724
      2169.24439177
      1528.71659308
      -327.08288337
      725.39101496
      -4.68308283
      2456.68391762
      432.65502456
      279.95418588
      -265.12324644
      -202.31064222
      855.57367488
      2405.11406974
      2460.56475993
      -2930.20140264
      -1700.50397744
      1113.09871853
      6375.69437151
      2916.64943088
      14667.40663956
      8840.61741577
      5983.01676340
      10675.49993826
      9423.18422245
      2538.92740932
      2174.67732805
      2711.67942976
      789.17104356
      2873.45335166
      349.77632129
      3583.09058551
      7615.67092578
      5578.49197122
      6325.49803929
      6095.54687425
      1718.75879208
      3235.16998941
      2109.03116160
      1561.94178110
      2977.47424708
      3447.95247693
      3795.70545262
      10232.48399707
      5892.72673372
      3228.42282628
      1083.29390483
      5066.61278114
      -703.68363899
      886.45469294
      2593.99913696
      1475.40943347
      2464.35574611
      5324.23950646
      3120.48380592
      3507.37446894
      4700.34168265
      6369.30767713
      -2486.33925431
      918.35471615
      3103.60833267
      641.82594330
      3731.24636174
      3401.37575571
      3202.99014791
      4461.03442734
      -7266.25523208
      -236.38034666
      620.29830103
      -3137.90012006
      748.43939114
      -1738.40658723
      1366.19504849
      5558.08747607
      183.65049644
      2354.50878419
      -883.15358963
      -533.17277816
      262.61834289
      3408.62688544
      3131.58297133
      1566.03570299
      -200.08232050
      244.98246200
      -17305.06999468
      8861.51074274
      6305.99404151
      -1961.47666888
      11976.32891221
      -1230.54189533
      5487.61542749
      12439.37041126
      5711.23148341
      4864.75847223
      5183.28390619
      2181.73153334
      6138.33651653
      5562.95558073
      2679.76344160
      5440.63049357
      4803.66260669
      2758.24533692
      3077.05790371
      2792.84280827
      1982.47172482
      3070.05420585
      2289.90407136
      8144.97611697
      4684.77160381
      4033.38880939
      3501.77838201
      360.55131362
      4463.59379403
      4910.85567662
      862.86595090
      1754.54890300
      4068.52495111
      6155.33795480
      1118.70116688
      4967.84637594
      1373.64415634
      4171.31478920
      5090.96797633
      337.58763555
      3501.13259706
      1769.32166145
      -252.88910598
      3207.16430835
      4101.54502270
      -3229.77611457
      537.30204693
      1861.40403336
      995.68979954
      1021.44156039
      2109.75564897
      917.46674442
      4589.70103184
      110.45644837
      1049.45597377
      322.85319788
      918.42756558
      2289.89986871
      -233.76921414
      -375.76967835
      -2836.14987202
      -1933.41301529
      3029.05788767
      -888.66672947
      -404.15197471
      -604.21894114
      -28807.02041058
      8580.96663072
      7820.82220752
      1513.44578778
      8181.23159490
      11848.70931281
      3737.22959986
      4066.51497594
      3644.77896934
      4705.69544115
      6498.07703037
      6119.68864550
      8893.96474349
      1797.04431493
      4136.93328742
      2000.77566566
      6684.14755129
      3632.90501498
      4768.82245609
      5821.24925472
      3764.33724235
      8110.88069413
      2478.31840662
      6823.48398349
      2991.12744567
      5192.29459769
      7779.09573305
      5469.91880613
      4327.93405333
      1840.47239086
      4514.71398764
      1463.67248702
      -5128.47285651
      7674.75158676
      4989.86740634
      1988.85382983
      5785.54921543
      1703.81797772
      3935.57071221
      577.42529342
      1879.52246270
      5658.22826337
      4627.74692497
      -147.14213088
      3610.15743075
      2816.62050117
      1619.70619186
      3807.14615085
      2017.17764850
      3985.24330195
      3445.96471899
      -636.81155933
      3836.05054202
      3971.04032184
      2797.49475977
      101.30460859
      277.54205787
      2635.14689580
      4671.47595528
      435.37635822
      672.32038835
      -302.67983224
      2061.39758725
      4428.10844009
      -1055.07911498
      314.84011421
      10241.98471838
      7458.16355711
      3838.12749558
      1167.91964117
      2247.81148292
      2149.12264308
      9429.10890599
      964.87815082
      5664.11678120
      5555.73267787
      5334.56133723
      7951.60866458
      2455.94336867
      3051.13261144
      -1930.58648130
      4014.98153834
      5852.34889706
      2401.23196045
      2971.24639357
      1913.30844749
      2276.14382996
      10572.24906268
      7218.62474989
      4442.47956894
      2727.93671828
      -5056.11484214
      1167.12375195
      7237.40313313
      9327.00361899
      3873.07907995
      6217.19459165
      242.03929825
      3387.96161103
      2198.93998018
      2895.47853900
      4338.73139838
      1528.90333427
      3821.95308255
      4925.96191935
      3038.28757542
      3344.28129460
      1219.14829757
      -2161.53239284
      6455.73400271
      4746.14994595
      4628.80023105
      632.60584637
      -190.37898764
      3610.93354400
      519.20632039
      2120.08549295
      3047.28611254
      759.48306009
      454.46777304
      3898.87240820
      1406.03202954
      340.31085148
      2864.04570613
      159.83907878
      2634.34398078
      1014.46232572
      -131.74148256
      4314.48859490
      1322.29065579
      -539.08104739
      302.15199826
      -18063.76538625
      3156.65671353
      2452.83176481
      7379.14465087
      9552.86232118
      7455.44001249
      2788.21434862
      3542.67817609
      5345.29770425
      7188.80802219
      10364.67826928
      3442.15458888
      1780.88065386
      2925.64983653
      -784.98227300
      3504.69032936
      -112.36853123
      1436.99241025
      3807.45131311
      6376.45556822
      6207.86303848
      3468.11429027
      844.68085316
      4841.31097923
      4800.74071360
      6001.43030857
      2285.90535289
      1390.93516495
      2066.73916895
      4255.18839539
      -7.86357611
      2623.19434325
      3762.08474423
      1975.93495734
      5335.40455937
      1021.50925266
      269.59578222
      1496.33841562
      4303.85940457
      634.12708795
      2360.02308382
      -1453.37677215
      2419.02043438
      5491.08275900
      2240.60254738
      43.01052120
      1678.63845264
      746.54381467
      3422.28276264
      219.91334056
      7862.60336252
      899.23181138
      -1628.39269322
      1749.08125441
      528.10432128
      1166.33021890
      -37.16215254
      -734.21651638
      1454.94077217
      -563.90326481
      1593.06969763
      -359.94854641
      1634.48283963
      -935.56026645
      -194.95446729
      244.18144916
      -35532.71009678
      6575.60093415
      20176.46592290
      5233.40669113
      9085.62661441
      6707.42761029
      6454.86635827
      8698.84846333
      6806.60480659
      14254.62723819
      2292.59525492
      2813.61686131
      3791.16121180
      710.22782669
      3559.90750608
      4298.37613735
      5000.43158423
      5553.58607619
      4116.38113369
      3250.28610726
      2906.92303052
      2620.16155635
      7638.74264436
      4439.66875541
      4032.91213754
      1467.02575267
      2439.05874725
      982.57842012
      3268.50001124
      1964.49734057
      3106.93966639
      5925.08229052
      2139.21652271
      4226.81005457
      2533.23094793
      3032.73341943
      1649.48222054
      -925.26880448
      2808.25709518
      1071.83271832
      -1273.34908047
      338.46800013
      4469.66221406
      3398.65702509
      196.24508106
      6050.79194681
      -17.75031991
      394.26715228
      1708.43972396
      -231.64997928
      408.77260209
      1646.68352077
      6960.08303418
      -876.38339122
      829.94882307
      333.74273285
      2959.23070679
      584.36890630
      1093.13382616
      1170.52203167
      921.87513470
      918.91897799
      3907.10314186
      103.96292777
      -385.71879420
      449.69640805
      -32327.05726218
      11947.22809585
      13835.59556863
      7980.06184302
      9946.35317588
      9549.72741260
      12494.22048661
      -659.18138257
      2694.79637240
      9149.00328396
      4168.56639856
      2906.79063283
      3046.25724776
      7037.10143365
      3237.88833285
      4273.66724489
      1488.08838167
      3090.85535389
      4573.85243319
      10578.75604710
      3539.81412945
      1058.90689902
      1698.59692855
      2744.69946768
      6375.03124882
      7208.90093065
      2767.97087976
      513.57747277
      2156.36363213
      8999.48553165
      1876.32740226
      1527.52180609
      2084.08464711
      5188.47711362
      2438.95310711
      1530.18398603
      6071.38369744
      5156.49562591
      -1574.15933659
      3714.82570266
      2637.78909716
      668.26839597
      1662.51928876
      5389.49352690
      3537.20169096
      3149.12105060
      2556.02672110
      -3378.71408864
      2076.32065519
      2496.53001554
      2659.90459510
      1075.32685927
      886.13690721
      1421.49543697
      2459.58009978
      1989.56089259
      -973.84964145
      1461.54564549
      1278.23008134
      2545.21015524
      2325.28569980
      610.89750097
      1938.24112502
      -2990.53561936
      1202.89765920
      1842.26870883
      5183.55466935
      8061.24604226
      10493.92017099
      9230.00125356
      460.71163817
      7567.28341839
      6248.42875801
      6793.60897697
      13652.40381521
      1475.76640387
      6924.19332007
      1999.64950616
      8614.84268752
      10258.09629624
      5656.86756302
      3820.98230418
      -3311.96989855
      3337.19788968
      5429.91108009
      6612.77400444
      1617.86489872
      4224.64345680
      -2424.09372682
      -3188.67733720
      5955.01469410
      -74.33725935
      1775.26086722
      1274.70284411
      6713.16344356
      1060.70438714
      -1012.96382752
      1050.16965963
      -1058.51482396
      -4353.89839002
      4135.45372897
      3686.93566158
      2581.04400317
      4318.40263147
      3444.89946919
      622.99162433
      2415.02579311
      4702.82723074
      1075.95911238
      4243.37550087
      4260.41444692
      2723.43826933
      1095.77668352
      3515.19761682
      4515.07573903
      1834.31227720
      1576.33524471
      5036.17206941
      1091.46038234
      57.49899126
      3343.77250401
      3105.03060296
      2331.62022730
      -2824.61741500
      1436.73909629
      3607.40963914
      2394.60928667
      1683.44063702
      -2105.63812178
      905.02125456
      -676.53565742
      1003.12217500
      4432.94373416
      2535.08042828
      -6168.87145022
      6092.98186724
      13247.63619370
      8520.94576505
      3978.78701328
      4717.82953492
      4626.31570565
      1213.16312974
      2533.86097641
      7169.65282256
      4068.89139059
      2679.44500398
      2282.50674077
      3323.71747438
      -1217.55256101
      -192.82309572
      3722.77975704
      1776.11436912
      6632.67599106
      1056.31584617
      4268.31322414
      4064.93555000
      1921.87592036
      5724.71948153
      540.30173527
      4731.40286166
      9199.48300562
      -1308.55115368
      2996.73853981
      2737.48440224
      1442.56447651
      1574.33545799
      4359.76190931
      5245.34819798
      -1393.88712087
      622.83759548
      4210.39306570
      421.35542799
      -327.34444101
      3960.17458688
      1736.14555122
      3471.25223742
      1082.21574860
      5742.18230266
      3410.12330252
      2784.25067398
      3461.54048516
      3633.85856329
      -1154.08472811
      2349.50225119
      1268.83522091
      3088.33222512
      1373.35830362
      1644.79033015
      388.33974811
      1863.88918884
      351.19698132
      77.08503765
      1419.49232515
      -126.56063214
      -1715.50255019
      -688.31810660
      -1114.84531951
      66.47670549
      8983.02451587
      12102.97189851
      5685.06446833
      9236.06933379
      4246.98353489
      14776.51787606
      869.14064005
      3104.55217619
      2395.03544223
      933.49616300
      7251.54202774
      7838.59994491
      -765.83300381
      3867.11677351
      4852.19462354
      1767.60714750
      7688.45239565
      418.53006488
      3239.96076004
      5737.19538546
      4537.92258636
      3689.23589448
      6243.46588596
      7469.06806553
      5593.96145648
      -1876.22550947
      354.53790031
      4257.10493588
      3088.98624126
      1606.45859003
      7409.87442057
      4056.16014298
      1319.44519817
      -1369.54449692
      -1524.60027505
      4481.28766416
      2315.35057706
      2021.09070087
      2035.70932629
      2464.53828556
      628.81593585
      1419.22350672
      3009.89797361
      2558.43931451
      3944.56134300
      3524.04128963
      1242.22777848
      -255.96531167
      2174.67696762
      1872.89130833
      -851.36777162
      -489.90672225
      1542.64018288
      4472.80553951
      2747.06793010
      2921.00769936
      -287.42447313
      1277.89562623
      1364.52424337
      1130.44884041
      1503.18541918
      1198.63629261
      738.23091423
      539.88867509
      368.99687861
      253.51321499
      9974.61633106
      11542.79358104
      4566.12701052
      8385.66798363
      -3040.82913347
      1118.38334167
      4151.31251058
      8752.98615806
      4343.46880828
      2256.65844910
      2658.02521113
      864.39187702
      1362.78291466
      2667.00634920
      2913.92466079
      -3816.43739405
      1515.77735949
      3157.48700706
      10538.63162469
      -2287.16353740
      196.77413572
      1575.05086318
      648.29243377
      4152.14327239
      6892.97976446
      3610.91661217
      2298.27934332
      -599.59342399
      6822.56647925
      1049.20975809
      624.79972772
      3669.06401010
      1964.25687512
      4978.35871402
      791.71335388
      721.11474587
      1891.32714670
      4921.01762275
      653.34311456
      823.72366503
      878.90238111
      953.83136002
      3340.77810856
      4419.84458647
      735.25388293
      2910.00935617
      2438.31505846
      783.57712562
      2299.59767473
      -792.11842348
      35.85243440
      612.00297771
      2578.41076276
      3407.35671245
      3108.55835532
      834.93028505
      1202.71574466
      2200.92737090
      636.64860681
      -171.32040466
      1770.85256125
      -67.79180919
      -2314.27933203
      -72.17237982
      -165.23909948
      717.11108578
      5498.88109974
      12237.48339070
      4089.70475514
      4687.43796971
      3580.72410228
      2763.16451258
      3689.62301338
      7058.94942361
      2958.19153971
      2831.05589480
      2724.26235429
      1336.89647163
      9127.81599407
      23384.10766330
      2906.17175863
      -0.00072461
      2308.37819632
      4634.29925519
      -3288.41340842
      6316.78860490
      -3436.30064807
      -3800.55699632
      -1301.37973807
      -11084.87320309
      4636.61528870
      5607.98454292
      7610.66362223
      7925.00641457
      4330.92968968
      4377.81853678
      -1089.33134894
      3043.17096788
      3086.79389601
      2336.93875604
      2534.67996758
      -94.14596997
      -1165.62105455
      689.75221488
      -2526.15834892
      -160.19860437
      482.32764037
      611.97582494
      1963.07683091
      5252.62573144
      5633.25027651
      4863.82480037
      2441.40897283
      2693.58912621
      -437.60557074
      2906.34933703
      1317.97921727
      216.81578414
      -869.65769692
      457.27760786
      3485.94988310
      1005.63314704
      1844.50880954
      743.42824525
      -283.89034367
      -368.35004681
      3221.42885964
      1117.27764146
      -2327.98888255
      -1307.65412693
      233.60359361
      1036.07898766
      3108.90325263
      6093.09008244
      3778.20111649
      7670.53625570
      10847.74110752
      4134.34453993
      2232.62018993
      2955.28540209
      -1547.06348715
      2766.01635785
      565.73147248
      1263.95185629
      130.32778270
      -554.26520757
      6087.03014332
      11290.51866438
      -164.06457550
      3999.17251520
      8305.42494278
      1436.37715784
      3206.36448154
      3390.76326899
      -242.36638417
      578.31101388
      -943.83660661
      3033.55491295
      4456.54590065
      6122.58728876
      1241.04046602
      5581.78084661
      1302.93552000
      363.67516214
      2525.04567636
      2979.59892315
      1830.22083699
      -3168.83211429
      -2481.03278886
      1489.45318364
      -216.89865811
      4408.96751710
      2746.79565491
      4592.99883855
      -831.85409931
      -327.51276643
      2046.98126377
      3150.32991758
      2845.22185336
      2216.37950812
      4011.21836819
      2297.74756983
      596.30647841
      423.73982695
      -894.80832746
      200.64186856
      2380.70284313
      921.06221292
      743.53472507
      584.83261816
      264.34627911
      -760.68745991
      4045.46248418
      -593.47758241
      -1309.69979064
      189.46060223
      725.51230979
      11130.73596141
      6805.99090511
      7879.51610889
      6853.92110953
      -194.62993486
      3835.34712530
      -3749.37530798
      -3799.96951624
      6571.84801014
      -2051.95748241
      2326.49916394
      -1090.38487775
      3857.60299392
      12499.33991803
      10198.67197689
      -1322.38443986
      4836.71579150
      3458.10906894
      2027.62726775
      -15015.19255055
      -10989.74697422
      502.30197436
      3844.79222660
      4508.34972937
      1527.35401077
      1517.10293844
      7057.29082199
      2865.13818632
      1356.96219158
      1967.43106772
      2538.96945013
      2628.93614374
      1014.80058857
      1936.09273077
      851.78992524
      -332.94876941
      5308.88772227
      3318.39985355
      2214.55128172
      1487.96433785
      714.93566031
      1204.58467194
      3361.20777115
      3393.57754981
      2664.71572735
      2836.94736211
      2164.10569603
      1339.18112788
      1613.61779265
      2874.50955005
      1275.28293274
      2350.73071592
      2349.39101872
      274.11258887
      2893.40565134
      2675.60685038
      0.77417821
      1411.11963374
      745.65789234
      807.82654985
      -1682.15110873
      4307.43458867
      -1650.44023519
      -2454.76034066
      -1257.05381535
      -1740.43658107
      1718.58807720
      21140.78682062
      9981.90033130
      7637.59191587
      1305.25329345
      5567.70633982
      5946.56447558
      3053.76308671
      4080.24701106
      3978.38704150
      862.45902966
      2446.55916599
      818.05038330
      4658.40986526
      4887.39882722
      6979.70080739
      5762.68192049
      1028.41920780
      -5546.14711699
      1698.06098581
      7220.29251079
      -1604.20411609
      -3930.94892719
      14582.68028393
      9083.50842516
      273.60432926
      1640.99454370
      -2360.95616513
      -2571.75684836
      5259.50833983
      6195.76733538
      5291.36638364
      2821.55023131
      2448.68399049
      623.79091280
      2364.22865012
      608.36596829
      -1349.15239647
      3267.22119186
      48.78748008
      -1657.73529061
      -1201.08892097
      1853.39699155
      -15.40260044
      2356.19086429
      5582.64905708
      2468.38758639
      694.82368804
      896.93525739
      -369.25442037
      1592.98852406
      4143.88996334
      -406.22821739
      1115.94559094
      -302.08802743
      -195.97140684
      1475.06699467
      1919.13301707
      1211.48894571
      -1141.51173112
      603.76965815
      2205.33020253
      -1595.69511989
      -1444.43767190
      320.77395109
      -951.78735559
      1623.79229452
      18655.51944796
      -1774.39779761
      6088.16152640
      8617.95957814
      4591.29198800
      4205.36622538
      -1309.11610873
      4670.79451917
      2344.58523941
      6986.93634567
      1568.30326001
      167.67832407
      -6814.78131630
      3026.94372262
      1366.35737420
      20912.97648233
      2217.32659637
      3213.19663784
      1352.58455865
      5046.81752501
      -2861.24532227
      4013.34357754
      8912.97355700
      14833.32362439
      -1937.10311864
      3323.83924677
      4718.82814230
      4603.35678562
      -204.89951210
      4687.60695726
      1523.31214243
      4477.48363875
      978.45716406
      10465.33022354
      -3946.24317682
      4365.68210320
      -4943.21916036
      5229.97767747
      7021.67332042
      4550.74517184
      -2456.33714231
      3940.91077366
      1194.66232410
      -981.86388465
      1104.38119478
      2715.78033818
      4083.72952488
      -294.94936585
      -1473.79038784
      776.48661388
      810.12092312
      4563.59078617
      3622.14203474
      -1249.29908178
      2612.94834916
      597.42816648
      78.08063186
      912.25853564
      836.88737729
      1742.85732289
      765.21757569
      978.57514610
      -910.71405896
      -17.51682724
      503.78612136
      172.93988620
      -11960.75642426
      3783.76947494
      3102.89168876
      3611.98257238
      355.46792155
      4731.22559948
      -686.43578485
      6338.69378710
      851.64600124
      958.64316638
      2616.21090075
      3976.77709053
      10492.61052793
      -10.82454009
      544.06869080
      -278.64017014
      5373.35660975
      -6530.50213878
      10248.64376364
      7833.59654001
      8789.39544346
      7637.71284951
      3352.16712830
      5157.64615720
      5487.89130977
      13056.47059665
      11353.36284368
      6816.88912269
      3372.56456153
      5429.51333053
      12144.12617099
      7260.85957122
      8829.96127634
      4111.11390032
      2888.42602630
      6542.22862767
      -4138.66643685
      236.39248112
      3865.42477808
      -969.87954052
      -1502.14938009
      9281.22180009
      -1518.63475586
      -1400.33904711
      85.42933864
      1049.37222772
      1866.63500030
      706.79893635
      -924.85885248
      1321.92489830
      2138.33015503
      545.88174279
      -245.70798050
      2655.19340139
      851.52589805
      -1425.79522268
      1048.89110376
      -965.68050038
      412.17848125
      2028.34372318
      -1183.39975710
      -2340.59011520
      -275.59855591
      -280.35411652
      8.01105095
      418.46892902
      -19965.59071168
      4659.87198468
      8439.39096442
      3500.52555832
      -134.31323129
      879.47701787
      7868.92070382
      5961.10348017
      4382.24710965
      3531.57003279
      3391.56770188
      5994.87360916
      5059.33651095
      -1041.20334895
      21820.63063329
      4020.03372962
      16997.72607443
      4464.93720955
      9886.40291927
      8297.51633581
      10255.96379592
      6821.19139369
      5467.17265794
      8449.57563613
      23407.18117216
      727.40304751
      6011.50056109
      8151.20050215
      -2993.79109634
      8934.16250711
      10155.03815911
      748.62918264
      927.33032689
      5140.77254528
      7977.88657517
      6364.64744031
      -7067.44905492
      413.05004269
      -5239.77810854
      8154.98154888
      1394.02678152
      1053.97815445
      -3456.30848906
      -1171.10914196
      -2416.87092119
      -1725.09405093
      1171.82615515
      1338.06659665
      -1227.20406764
      912.98699294
      -203.27521413
      -545.22805000
      1060.44001477
      2494.22306142
      -974.47189966
      514.58703921
      -198.03851103
      2427.53427997
      1367.43631320
      606.32511458
      1788.95839731
      -441.17531888
      -498.77633625
      698.13146641
      1297.40729410
      872.01523880
      -20679.69231914
      8095.26755809
      1984.56377873
      -5857.84434417
      2560.22620381
      1943.70096988
      468.21691224
      2899.82705620
      5618.73641005
      18515.80867044
      5638.12078133
      2418.45684798
      2923.38033257
      9314.07907789
      10490.66168357
      1268.02481124
      6095.20635130
      40313.56504609
      10961.70573071
      15508.16184055
      7323.24831355
      4881.26813449
      13379.71282194
      8137.15274684
      11757.05308174
      14248.06852796
      6019.95748049
      4493.57321905
      13733.57342435
      5968.41505546
      12496.82752612
      -1969.46811307
      11643.03619550
      2373.05987337