<?xml version="1.0"?>
<VTKFile type= "UnstructuredGrid"  version= "0.1"  byte_order= "BigEndian">
<UnstructuredGrid>
<Piece NumberOfPoints="5123" NumberOfCells="5123">
<PointData Scalars="Pressure" Vectors="Velocity">
<DataArray type="Float32" Name="Pressures" format="ascii">
      -3049.67610551
      5479.44729121
      3574.96118204
      -35561.77368429
      -25076.91863939
      11796.97676643
      -20482.92742986
      4818.79548538
      1028.66970013
      -37979.07088609
      3386.89750419
      -24929.46055353
      3075.08828484
      2346.95341486
      -24289.64383439
      -164.83791384
      -28172.76905675
      1931.29122114
      708.92033271
      -19896.22698744
      -4396.58116605
      -2574.69389273
      1134.17935528
      -10729.28674922
      -1081.94188389
      270.17132417
      4012.60613412
      222.12811459
      -1228.96217113
      593.49517172
      736.39423889
      323.27907291
      588.81739525
      -3016.98406347
      -515.96496302
      -161.51731450
      -2562.94473144
      2182.73381088
      -242.49549700
      1750.94166847
      930.94812660
      1182.14758560
      -1583.09778458
      1147.67409397
      80.82618893
      -2890.15306073
      -1197.56152973
      -166.76444369
      -954.14501578
      -2237.41286404
      3086.36857591
      2816.32637955
      -1252.38777344
      683.99107342
      -859.73929089
      323.30963356
      -154.02245268
      -64.48272313
      1032.60160539
      -311.35294974
      488.21581303
      -218.16259927
      -504.40052852
      145.39879843
      360.14948163
      926.74321325
      3503.91352317
      9166.91470817
      4261.72804547
      2279.39044247
      2939.57654013
      2410.38695635
      1405.82960270
      2756.27864827
      2247.75438967
      3594.65616381
      -4438.73101918
      3241.28229643
      2405.68340218
      1674.71367224
      803.75019931
      1274.38453904
      6594.14648225
      4994.43392074
      -631.65925974
      -2595.16556628
      -1260.71220879
      750.55570496
      7787.75384786
      4009.70104705
      -3486.64774357
      301.92107271
      5159.87523988
      -908.55369467
      2959.81514225
      1232.52334602
      129.97149791
      815.95699352
      2665.73216882
      6425.67486402
      3002.94079043
      5753.61079316
      3330.36971289
      2652.62293483
      -286.47928295
      1484.19573367
      56.38717067
      5097.99766102
      1419.98355440
      -329.31743499
      152.59278519
      1112.51643302
      659.39227050
      2303.13149064
      837.92134384
      -396.64855659
      -680.74988546
      -819.63647903
      -1724.24282896
      -43.35884696
      -1565.14769500
      -1665.86894888
      -1437.91178125
      738.66707773
      876.92910043
      216.31828215
      -218.05331326
      -517.30125108
      225.25935434
      75.63873217
      442.46394472
      1173.76088757
      3809.32886715
      3711.56578909
      365.99501134
      -775.91262137
      3669.56299956
      2363.10116197
      2118.47411084
      3605.36177409
      3877.05363065
      962.84745385
      1587.67598035
      1578.16999216
      3764.37035356
      4057.76631229
      9061.82722476
      3922.96130201
      -1026.77940352
      -1503.86460421
      1886.86267395
      5301.90220442
      5166.56114547
      7813.88484456
      4146.87748512
      441.56639814
      -8344.24616260
      4107.89249723
      6409.09363376
      4715.86865287
      5658.64526664
      -1823.14167813
      1975.52607437
      2019.06136268
      5837.18400872
      1975.26817323
      932.41301367
      -891.34474199
      6029.18253930
      1422.45654404
      330.57887597
      2002.65771074
      731.47586981
      1874.14144100
      109.55241034
      4304.65775845
      -440.90350172
      1361.48820390
      6121.25676496
      1844.90199061
      677.54778572
      392.81946130
      2781.00808476
      1303.82501697
      -3584.81344691
      -1387.21466330
      1513.09439954
      870.58134165
      -2057.54143466
      1790.66905800
      -743.80267599
      2003.88021383
      -709.14835495
      -1537.73787678
      -1504.67254098
      -368.84694898
      254.06572904
      296.17720036
      2154.29746318
      2350.54847661
      7556.02308154
      4188.81641844
      -785.54159148
      2976.42587417
      5005.67647577
      2456.04515365
      2054.38419363
      1636.48132685
      4276.05538517
      4325.11933304
      7112.54877905
      1781.07381382
      4866.13784060
      2445.66461267
      6530.59833915
      3030.47980762
      5111.82650527
      6306.98217674
      5961.08473504
      5720.55378251
      3247.62713069
      2816.00060242
      662.87312590
      -1783.17001356
      2790.62925512
      1834.30934815
      2723.42038598
      2392.84356178
      3245.93692280
      -274.61762106
      -3292.20741610
      3677.70224109
      4230.61762958
      100.21297349
      975.28378273
      5063.67351870
      -846.88915782
      349.93921529
      3243.57212790
      -5703.17594353
      3114.32348281
      -56.37135635
      4387.53526109
      1214.54795811
      2511.18850548
      -3698.13655322
      292.83648183
      -877.74566769
      -2612.06354184
      863.42520380
      2971.35228387
      -900.14822319
      79.87621810
      696.53706858
      1315.72223288
      522.62500381
      1424.48813446
      1799.12244605
      1878.52470427
      388.91685725
      -2483.82374655
      -1833.19255690
      -2624.44861661
      896.89172005
      9840.13732400
      4503.87159349
      11685.87797004
      15431.91801609
      2000.42903453
      4835.37272265
      9593.29769191
      6550.33874771
      1959.41151802
      1843.84075852
      2788.81231980
      3530.78089776
      75.96996913
      300.70026661
      3640.21617867
      3705.97963848
      5250.76563322
      4102.80431355
      289.96697364
      4246.14948208
      1739.05898315
      1299.95328276
      1642.11352761
      1516.03028410
      1723.37238808
      2627.99060145
      2634.22232718
      1260.52343878
      3262.62979523
      4571.40046603
      828.22394373
      -464.06704555
      3079.92513028
      -169.14531958
      3112.29324832
      2181.48003368
      1932.98424535
      974.79525104
      2473.77920956
      4812.72885386
      -1257.93646372
      -92.39803528
      -1266.46188441
      -1205.28292083
      3039.45576944
      3408.76554402
      6450.72184347
      1102.77316680
      -363.14674029
      -3298.39007099
      -727.27823777
      -1348.19367585
      464.56805872
      1404.01232707
      1343.45537178
      1105.59385596
      184.24084945
      198.61491062
      2971.67877581
      821.70966316
      -509.04747291
      3658.74141438
      4362.31195479
      -1600.95569597
      -310.77949892
      545.49311669
      -17305.06999468
      2857.51297755
      2200.03196995
      4699.97547006
      2314.05996995
      2291.97741871
      7125.60135169
      6941.84559213
      8868.12291617
      5044.97969793
      4379.13226822
      4823.18062435
      2809.58109425
      1877.88694902
      7733.87613916
      4057.55062333
      3662.39501564
      2082.01238642
      1740.09239195
      3146.31855709
      832.77168772
      -311.71135045
      2131.06979161
      7108.50062840
      3111.37096414
      1483.76803994
      4829.15212651
      5269.21651464
      3483.45680152
      -425.07212643
      2553.18963872
      2813.29005723
      45.77462853
      3795.92862507
      -4601.31040548
      3927.91179128
      3106.97320204
      -3451.76566553
      3507.15667463
      2461.82840393
      4780.01733626
      192.95318061
      3252.65375006
      -3758.35112249
      1287.14442790
      16.76019026
      1318.44147661
      4050.09440024
      863.68991991
      1691.34324430
      4481.67952816
      -1188.36441904
      166.74894247
      -142.94290949
      1671.23526369
      320.76969361
      1006.00521136
      592.50654656
      -1012.64916529
      830.20408611
      -2469.57949790
      -2542.63082624
      523.03870445
      -2053.52080508
      798.22188378
      463.56225877
      -28807.02041058
      2861.38430513
      6197.06021128
      3187.52432464
      3008.76011060
      11597.89886175
      5632.33589220
      5960.26726482
      6093.31013587
      4395.94537194
      3603.77683189
      2489.84532677
      4281.03343393
      4693.49662934
      -1046.89441260
      1397.64876580
      8369.80465171
      42.93670769
      7572.25466141
      8108.41378205
      1135.69075639
      4132.00248388
      2801.38307549
      6270.33379795
      2986.87710797
      -2921.54466140
      5306.42807366
      3861.96193906
      -689.20789730
      692.20979413
      6588.96908509
      3340.46643113
      3072.01914589
      1532.46154765
      1861.02191711
      -2898.49379204
      2245.26740063
      -869.06517045
      3674.56494117
      1890.67185946
      2067.61709359
      2122.00843644
      3791.47778575
      -1490.80450805
      -28.87343139
      1491.73809135
      1021.81113913
      354.94066450
      3058.45355930
      6049.11708359
      -1322.77890338
      587.11557899
      3205.49234248
      -933.92127344
      242.16934798
      -122.32424722
      1534.74664187
      2649.39141362
      -457.08267999
      3291.75260602
      1885.83800380
      2804.20978138
      3032.70390792
      -106.62657003
      -1003.88167676
      457.63596708
      11534.48469430
      3703.47979477
      4989.19860513
      3330.31428514
      5258.32037601
      3634.75596361
      9871.40711069
      3986.91892094
      2474.07410955
      845.57284722
      4221.24832321
      3188.67179627
      1934.36175559
      4839.25473579
      2481.71908405
      4514.18217871
      3406.98636131
      2809.25784785
      2767.85232559
      1421.81264787
      976.09030515
      1358.53758147
      3616.25965115
      -2630.81231561
      7752.63138346
      278.32320901
      3932.21605249
      5435.95914093
      -602.40884109
      4318.94869279
      2444.16457017
      3853.05841903
      3109.57490114
      -1433.05883490
      1440.67571570
      2123.94867313
      4896.45605785
      713.59378055
      2310.21084298
      4264.33709739
      -988.38108718
      4190.90151916
      4194.49931426
      -2541.41996565
      1981.48090043
      2679.88364685
      1916.51950216
      1051.36238261
      1640.64380131
      -6.46981591
      1727.31696317
      2939.86272285
      297.38216479
      -2945.53245413
      2065.40008882
      2295.33847892
      483.94766697
      1213.18374743
      173.00472276
      -353.12197350
      2530.63043028
      1376.78074628
      1178.35997166
      416.35371110
      -1664.08003840
      1491.12162186
      -18063.76538625
      4754.54394716
      4315.30555972
      10065.49067263
      8370.39803728
      4793.89630541
      6148.92611253
      2709.34581357
      6181.51490146
      4871.21387579
      7207.97347613
      2178.17933481
      1404.13627435
      2613.51040325
      3674.17244949
      2037.49075034
      3371.28673637
      1911.20102612
      3505.62930850
      1707.02893149
      8256.59707700
      534.28767912
      2757.79815572
      2225.87206190
      1793.64790593
      3569.51655196
      -29.03133697
      2744.00400746
      1889.97239737
      -1486.27048301
      5329.00564141
      1889.41482313
      1943.11409054
      786.35116397
      1935.65129536
      165.09294859
      1187.78759840
      2152.17615536
      -217.70088095
      4274.85612340
      1879.19431138
      2194.66061383
      1250.00960342
      -205.24600659
      -4396.09616244
      1119.30575850
      2207.41720347
      350.21194845
      1079.33675279
      2511.43142025
      3483.41947983
      1312.37539014
      1297.88030840
      2271.70347859
      1993.55231621
      1282.71512331
      519.46055427
      3.77909337
      2354.42799931
      1140.94489093
      1314.70766142
      4577.01421578
      1987.27960304
      -1266.02758468
      -249.20807340
      403.25035299
      -35532.71009678
      4836.64644122
      7069.47615182
      8156.92165772
      5185.09343440
      4863.26327120
      1857.95819667
      3344.61428215
      2953.48181605
      8086.07987650
      7062.94270132
      -4787.53518773
      5170.69181628
      2359.49763276
      2398.98893820
      3436.39244406
      1000.37057153
      -4258.10252766
      792.75856288
      2350.32913997
      2167.49394362
      616.29500802
      7314.24419386
      7134.24236089
      1816.48629857
      5282.47542192
      1554.93827703
      473.57761450
      2224.86628691
      1312.94416469
      4369.12645714
      -905.33902052
      639.79841820
      3931.82861811
      2401.60556313
      288.71864424
      2765.17930756
      -724.52691179
      5333.26705974
      3711.72118509
      3556.21675892
      -454.26565387
      741.65555799
      1989.06246129
      206.15750217
      6188.07334193
      -567.00928800
      -2181.00506832
      2503.91311262
      3116.12090769
      2344.83015464
      2595.57902144
      5230.76254633
      -1218.98075471
      2157.41917165
      1315.83569520
      -1064.26796970
      2779.45675536
      -1348.74901073
      1105.91530148
      506.40208822
      1126.77916312
      3135.55840499
      110.19686700
      895.75561481
      -1363.20795320
      -32327.05726218
      1300.87556281
      9749.09963760
      5027.71752008
      1415.83785336
      1019.68861470
      4395.48947929
      5252.59402219
      6109.87776284
      3513.28621543
      2467.98945717
      528.38307618
      3559.53938414
      3096.22147176
      -3277.61361062
      11882.25992571
      3166.24343953
      -129.30515040
      3055.25236293
      3841.38767491
      2902.85907355
      5488.33288600
      5613.05130345
      2214.43499197
      115.56263421
      4823.01678662
      -2728.74771955
      1682.86573956
      5121.06457863
      9641.16102520
      428.22317240
      372.54546781
      4595.48526463
      741.97435264
      2023.45825464
      2598.92041777
      1709.47076054
      2730.47467928
      -1288.88197286
      2245.03166378
      3635.51800506
      -840.24900140
      -88.36182816
      195.70934704
      647.61971257
      2651.93236371
      2246.88875771
      472.09112152
      2576.09801672
      1785.37776319
      -389.55358292
      1261.04069248
      2450.08244768
      2794.17175757
      -950.97452167
      162.80720329
      149.26019260
      -174.03639947
      -279.62068894
      1709.68609262
      -626.99132705
      610.40630239
      327.70659173
      -895.88715984
      704.04293293
      1199.27613500
      7423.53598623
      9896.30598565
      2760.88674635
      5225.93767011
      2202.70408446
      4916.04978229
      7056.45200808
      3339.96553131
      -108.29606970
      2507.17036667
      1609.34575147
      4609.42486686
      7338.88612933
      12524.56972284
      901.03443300
      9435.80320042
      1228.53152891
      3465.34450038
      219.00736825
      -9500.08839222
      5375.45297250
      280.05820581
      3043.29551824
      3052.20211414
      -152.52747311
      -3384.28668324
      1541.96668789
      4365.76367637
      -2939.01057281
      2284.50151137
      -1572.81589050
      -1066.45039939
      2589.78219620
      7639.79604631
      743.81242506
      1221.38568796
      4895.80970105
      -631.22207418
      1866.15134487
      343.51088507
      1847.98627120
      -574.59548797
      -1345.90849955
      1477.32141372
      1828.95248013
      2256.59644779
      276.12922686
      1920.20754810
      1118.46073662
      -349.13511433
      -1212.51468464
      2178.37542548
      803.98602852
      378.47821015
      830.25157985
      2415.77040613
      1459.04252779
      -740.06424531
      398.78634308
      -380.42453176
      1546.69717052
      1250.68326529
      -2276.67698454
      -968.69018958
      633.66165442
      342.34868962
      9646.73730579
      11258.50465082
      2453.42258481
      11801.17978548
      9575.67892530
      7723.77492536
      2635.13108830
      4022.45973226
      1307.02112172
      -4047.67403933
      -4641.59655010
      3832.47550368
      1735.22077534
      179.94881037
      -650.06146983
      -4915.76894956
      2511.73748339
      -5204.53795881
      10496.25986362
      -221.06978745
      -389.66292318
      8366.03499070
      1762.51126999
      3094.53935959
      1709.34839839
      3790.48536627
      2686.19917867
      -657.49372380
      2853.87892568
      745.19929968
      3937.71270583
      2800.20984854
      4846.62154804
      -238.03199991
      -928.99362506
      3169.26668765
      356.62309421
      3458.48537569
      6828.69329314
      2221.63470637
      -570.44577818
      3685.87993550
      -456.88313950
      -618.81963978
      294.00461979
      294.44945190
      2938.67792017
      2716.09987932
      1075.87064488
      1410.23835155
      3095.07920506
      1069.23186595
      2829.05301583
      636.10378390
      269.13204336
      1226.23574165
      -196.83212528
      1017.14456875
      -377.83264056
      -1925.21407252
      -1345.08047128
      878.85842262
      -1115.60920387
      -469.68455562
      574.96781882
      764.21021650
      1498.54325184
      11627.20593421
      1376.15452164
      24760.27409149
      4440.76643045
      3744.20512526
      733.56309568
      1817.12940950
      3936.37629382
      3057.46999522
      2441.41213474
      -1038.43548151
      -109.45814422
      1922.11169351
      263.93842974
      3660.86125130
      2176.02130002
      1715.01936933
      -4013.32157760
      2735.29928224
      43.53878109
      8223.75033229
      2280.60431291
      682.61033127
      15108.37130276
      513.25664642
      453.39587697
      262.74289520
      -1313.39438703
      -889.42041342
      2832.75254325
      6352.15007792
      3171.35346897
      1879.92598622
      1686.28045079
      2460.06082713
      813.79600299
      1831.94111245
      2888.84662372
      2058.91102839
      -327.80055719
      -569.19509355
      -2061.65597496
      -3304.82533419
      5203.96872968
      2200.52951432
      -1483.70325801
      -134.67342909
      2543.62661365
      2232.71755420
      2503.92412766
      1151.44587949
      89.62001936
      1504.17534673
      -358.68438213
      1148.72622175
      -45.26797149
      2718.79988009
      79.92226942
      -540.39437250
      -3337.15689096
      -4846.20455273
      -322.49050324
      874.77306877
      656.49154434
      436.52998772
      22065.94144051
      2300.70641572
      6294.52472614
      4304.37174367
      2324.18049566
      6873.47914526
      2032.60143162
      7098.21779382
      4689.98675409
      1275.91488347
      -648.56806952
      -13737.67792785
      -3552.63258252
      889.00874462
      5876.96156172
      559.03481839
      1740.17820355
      15436.65257171
      4780.10590175
      6.30242927
      1318.59301345
      3633.77616196
      187.17146265
      3094.54788513
      -1078.30378233
      484.63100983
      6763.46196941
      2434.38634416
      5731.88245092
      825.05514526
      2930.15666115
      -27.81550220
      5131.33686325
      2147.38796468
      925.37037795
      1721.55462844
      4336.21041608
      993.81334528
      2052.63462238
      -7.35518925
      -17.08869517
      -3966.20750823
      -1581.74160396
      1288.15046816
      -3975.22087409
      1141.39916432
      1840.26071186
      1669.62226953
      1402.98157773
      656.49380853
      135.20148068
      -1146.05537307
      -2086.68294571
      2217.06945696
      1377.20254277
      528.10790014
      297.48607300
      14.51391803
      888.63578347
      76.62247592
      -204.71159852
      -43.71625685
      453.43960678
      534.16403041
      416.76867286
      1030.53296622
      7019.62105978
      6294.36356901
      5450.67588744
      809.15057413
      4349.14035107
      2589.62278035
      2613.37883979
      2618.60280724
      476.21328325
      552.47920145
      848.29067601
      3868.62908271
      4996.05826778
      7431.72480672
      7700.02629813
      1355.23673196
      3039.56463803
      831.64964223
      -3704.34674872
      -1182.37057200
      5356.58208518
      5122.45350746
      -160.53679933
      2901.89737559
      -637.80139476
      1901.68825067
      4328.88420489
      4282.96635723
      4900.02193711
      -389.35193738
      1777.21008527
      8251.51095855
      -5311.32393232
      3548.64653035
      -1075.56113103
      5029.07025295
      -2214.28067675
      1025.46918530
      1070.55889628
      -753.65168683
      -649.44526181
      5258.94938029
      964.64867813
      4098.73105466
      -1461.70866097
      -404.40962231
      -308.97317921
      1856.16103292
      -207.85305029
      3269.14165553
      4769.00875829
      1534.66519158
      784.63638602
      -599.27802010
      88.27216930
      1792.66970438
      1578.83214326
      -3641.85085394
      134.25606475
      567.70253860
      139.83094383
      -311.75369170
      -435.70560743
      -1369.90492163
      -1371.19447295
      -17.10099932
      2406.27230774
      7422.33054441
      6639.87903202
      1487.56563294
      4068.05728928
      4174.27343152
      3016.26721707
      1537.69933659
      3083.63712476
      2937.48777708
      3296.31604583
      2552.46516229
      12169.77749793
      11786.60847185
      -10837.69476096
      5166.19393505
      7818.30043979
      5494.14632336
      1977.11773616
      7264.56972050
      8341.30892421
      6390.72017387
      -108.17160876
      7707.77764161
      3947.44467266
      -697.44144417
      2391.49456997
      5115.47141866
      1183.68977375
      2160.61303852
      3364.65553466
      7723.28427131
      -4965.21112053
      2621.89164980
      4577.01407031
      2277.34418335
      3322.13922756
      4515.98941937
      5818.02718691
      255.07533079
      3998.10405349
      -321.91087931
      191.75992192
      -525.62824224
      -18.83940135
      303.23936464
      -1776.39483601
      -2518.48355235
      -1781.54293807
      1959.02444269
      1458.24964189
      894.93288617
      2335.66212056
      -1512.56741729
      336.07794817
      246.82145215
      982.99242381
      -209.27463137
      1555.28598849
      1261.04804576
      572.11642360
      759.51278710
      460.61349446
      51.82736912
      278.81230058
      3316.94614192
      6770.45614591
      13369.04216158
      7100.85694826
      12161.72544601
      4774.51475948
      139.98019568
      -2184.44933134
      4120.09878751
      2951.73866485
      1242.02802843
      2875.80551015
      89.18180775
      6794.42525813
      6103.33333660
      -4408.83453537
      3724.83441259
      -3944.06797020
      2546.66718210
      5797.29502859
      511.19567386
      1643.19566092
      1461.41706535
      5663.17302048
      -1956.02236412
      236.06459537
      481.66862001
      -1505.36684153
      16636.43262503
      1148.86428071
      3846.09681519
      158.21148643
      2111.95344180
      939.67649468
      3166.82380054
      4753.28025534
      2902.52636358
      1818.08547024
      -812.75619356
      -722.16532778
      -3527.74998131
      1486.77102083
      -6.79909304
      439.96379202
      4032.50484760
      1800.94075653
      1494.32617529
      -66.40897870
      10.62956062
      1903.23153282
      1712.17172882
      -1461.70058598
      4319.19104770
      1644.29233080
      1913.59709947
      1398.74488078
      17.99040357
      888.83526409
      1978.14153447
      709.88879031
      72.46239901
      -1428.15725586
      -441.97648421
      -533.26471450
      -1258.93200837
      74.60596199
      -7627.61905051
      2817.27724863
      7519.49186906
      6927.27236295
      3049.11546719
      3618.97889730
      5881.70907790
      2599.11557390
      4712.17593129
      -986.83385636
      7152.52199954
      415.28876566
      3183.29127689
      3904.90488818
      2421.83021757
      3852.10897139
      156.00857850
      12287.33734577
      4345.21912962
      8772.65605429
      3538.49514339
      2631.08137024
      7076.89730851
      5444.92545258
      3099.75538774
      5151.43873092
      3241.13131620
      3940.39912868
      -6698.76774317
      788.69182286
      2830.66380845
      15101.28413104
      -4079.71229410
      -1228.48576843
      2341.34852695
      10267.96072883
      6245.44742127
      3241.48076102
      3971.47841278
      -988.45998098
      1267.38135694
      -1752.83850984
      -2725.70674842
      -4394.77297950
      8141.26379879
      5776.60526702
      2934.75851452
      2397.49848458
      2328.83100580
      973.33649096
      2629.16104789
      1849.11141983
      1240.35653531
      1031.44605177
      634.62670479
      -326.58053097
      -998.53108883
      -430.64869744
      840.82415606
      300.08177524
      711.53080491
      1986.26880832
      626.39721999
      2.89010441
      197.85610333
      1432.14196066
      -1737.55830050
      11937.45944649
      2695.82010003
      6845.09184248
      7364.42092121
      7544.14060483
      7828.36136684
      2346.46340514
      5155.90926949
      4457.15985777
      2432.14773090
      3575.37751982
      3750.05555092
      3341.80598851
      5072.60849848
      8414.96885874
      6704.49810021
      4812.50187061
      4355.88077877
      -3236.54100693
      -3061.09970237
      -1920.24987533
      9333.10105020
      1980.27995855
      3545.07133638
      -1862.56976485
      4903.49464053
      5706.22004419
      3656.81693379
      -318.63680310
      5028.07223797
      -1077.02847963
      2869.30036047
      2313.63184384
      11441.94082842
      -8280.36511328
      7358.83675920
      6246.73951109
      4379.66574133
      2572.44574756
      6711.65877023
      3343.38287469
      2191.14374515
      3110.83364038
      2074.94549122
      525.06521631
      269.94608740
      1908.07105994
      2514.04627827
      -2035.44722500
      964.57725316
      -1833.37018645
      2974.48381192
      2123.41349139
      1441.96058232
      1310.72559854
      308.22935614
      1270.65825059
      189.62855381
      816.69921133
      -259.41774051
      -358.61979743
      302.78716202
      35.17963025
      151.24129549
      8996.02876765
      1374.65826212
      -13717.70992714
      1504.57044951
      3591.38918472
      1228.44396194
      3673.86918157
      8848.38439073
      1686.86591264
      7661.10547321
      206.05421134
      3366.99227045
      5056.87378056
      6212.33262575
      5777.23286952
      5820.21131229
      598.36312827
      394.80766331
      4298.17484917
      6052.39192107
      951.93648241
      284.41444062
      6624.50165856
      -2859.04182735
      2429.22004118
      9963.66109238
      17699.97867327
      -266.80212676
      1706.70472779
      300.68536371
      -7797.74040355
      4923.21320323
      2553.28192355
      6319.81386953
      14653.78380237
      -1208.57915010
      1134.13378784
      5521.69078388
      13142.05405607
      -605.17629250
      13837.03851319
      3611.37957614
      482.16278278
      -2274.58798002
      439.88883609
      -3750.62968789
      -3634.95168285
      6638.61881165
      3016.59293204
      2396.49396078
      -511.21873438
      1301.02594375
      -905.06695077
      2170.00631830
      2167.21175330
      575.70401545
      2827.41919182
      379.99843184
      984.70309384
      19.55294218
      390.82213268
      646.87746045
      1215.12749034
      70.74257926
      -610.20442065
      734.72186574
      -18.79729578
      -250.64371219
      -19965.59071168
      1428.38076888
      3297.21965333
      3408.09405152
      7006.20003057
      2317.77761854
      16946.13513503
      -3458.77575456
      3981.43918623
      588.64347938
      6919.94517439
      6243.93968861
      10538.07998485
      1495.74842149
      6174.77808351
      -2193.27291810
      1901.08105709
      14856.03367081
      -764.94454315
      5103.22886655
      1596.96130357
      6168.78731971
      -1565.32481617
      95.18256093
      -1833.94357274
      3997.82791809
      1350.30685012
      -1043.70639199
      1947.83607797
      1491.33494286
      364.77289500
      1309.11859571
      11217.46310982
      -618.16347638
      -3092.82162051
      4935.91911552
      5226.68548645
      5921.21989147
      5962.65566863
      5327.74542478
      2081.27279463
      4948.64124338
      6409.61037147
      5649.38834733
      2322.63936888
      1564.71860907
      1612.41636929
      2126.44537932
      3418.59648050
      3390.98444115
      1356.26256447
      4258.55879045
      -1257.17109706
      5330.98570928
      4188.46078425
      1245.92027283
      820.54115285
      -207.25276547
      859.84351352
      2148.85194567
      1039.43248839
      -23.27263628
      -389.77687548
      413.97089403
      -634.33950022
      8.10549710
      -20679.69231914
      3615.19577129
      3921.16141255
      2283.73341591
      4665.46947275
      5112.81799660
      -709.99813202
      5132.87846990
      1845.07024753
      8821.74669338
      -7763.08705707
      1892.35393338
      6635.56291814
      -893.19066227
      5755.15888783
      6266.92964456
      5625.65985971
      4624.32715029
      2848.21439236
      26498.86869477
      2985.23649475
      5327.30995213
      1452.79375594
      -796.11964871
      3974.40598835
      933.58229555
      -556.63242228
      1965.76365032
      -143.28137246
      -4621.91969401
      -720.02904338
      7282.01026124
      1774.68739220
      -166.54521575
      1803.33013690
      -1911.77805024
      1134.27034943