<?xml version="1.0"?>
<VTKFile type= "UnstructuredGrid"  version= "0.1"  byte_order= "BigEndian">
<UnstructuredGrid>
<Piece NumberOfPoints="5123" NumberOfCells="5123">
<PointData Scalars="Pressure" Vectors="Velocity">
<DataArray type="Float32" Name="Pressures" format="ascii">
      -38484.28242241
      -28073.69240373
      -38216.87589502
      -35561.77368429
      -25076.91863939
      -24029.16659837
      -20482.92742986
      38866.03958382
      18771.26422649
      -37979.07088609
      42648.57165354
      -24929.46055353
      -25000.17823585
      35403.08644871
      -24564.60003661
      23362.85728332
      47257.30312229
      41546.26900091
      30665.18330760
      -17396.61005164
      5063.29863993
      43077.75654282
      55491.53622926
      33655.89298922
      -12396.38071402
      11668.42589470
      29399.73780033
      -23628.07155876
      18675.50226254
      20084.36958595
      24290.52967254
      16566.07541189
      28638.01040505
      -1141.38882377
      38875.02098337
      7892.26843280
      14410.02802152
      6705.58239397
      23256.13897847
      12364.51549441
      -2140.01293975
      20595.35705449
      7941.84078787
      7422.56180110
      9212.65745433
      3209.11042952
      -638.15614229
      8779.45862754
      12259.70276189
      8406.10711479
      2945.30572639
      323.61828047
      2523.08128438
      3744.17056301
      -509.83993896
      422.54939053
      4038.67191515
      4262.14094055
      -1758.09794499
      1138.47791930
      974.95815217
      310.06771826
      960.23929598
      -189.10078224
      98.17107422
      -119.33909975
      8753.10889829
      24164.91609895
      9893.45345645
      26888.73882030
      11085.71398696
      10512.52460544
      15748.66709914
      27224.54692031
      20903.46638920
      10874.27493306
      14611.66002717
      8408.23962383
      5673.18908292
      10367.23754764
      4204.48165301
      8770.17742384
      9062.94599632
      13242.91214260
      19375.61805989
      11038.75667132
      5093.45598444
      6373.72888858
      8346.66118187
      12137.33727155
      8592.97464180
      11682.50094953
      12748.41974596
      12847.03503363
      11678.89438737
      2828.86319052
      11751.53654768
      8061.22063345
      3466.23773954
      7472.77235244
      14841.70685928
      8910.09270936
      5836.68678891
      16207.12225449
      11819.13600656
      9214.54967350
      7730.27220647
      1850.32606702
      5876.90070363
      6914.31142816
      -1031.69522753
      7598.32765677
      4112.74618204
      3557.58100175
      4774.85072123
      741.27281249
      4061.23407840
      6604.10722310
      3926.40900015
      -976.04498652
      -2274.93937771
      1489.64828956
      1637.82573649
      -3670.30690623
      2289.28158417
      1389.42964946
      -3413.58223922
      1701.15080906
      138.40818094
      -4246.78890021
      -3024.91256287
      549.49826814
      8965.83217338
      22779.28242581
      75736.86917662
      18482.78307444
      14599.73854680
      20447.81108954
      19433.35710130
      6459.35185029
      11899.74656619
      28052.77809945
      13032.59795994
      8856.51427246
      17684.58616782
      17472.51099946
      11943.46087704
      29766.63492367
      12064.58984894
      16903.22098432
      15874.58787420
      5163.35094701
      13103.59180280
      15899.57968671
      27401.09808966
      9212.84768292
      5722.15749401
      12023.05653490
      8645.39953162
      13176.79326006
      17123.40460472
      19761.45891698
      9773.66669046
      8192.43259439
      15391.34366561
      17980.89055201
      15263.53497800
      10416.44907042
      12050.70822029
      6037.51328684
      5203.45360631
      15498.36870438
      18834.88657015
      11327.05885705
      7251.32826881
      10628.33097009
      173.84015228
      7239.43157585
      12065.16147915
      3742.17417903
      3213.49905414
      5314.34016851
      1043.67847755
      6103.08935613
      9340.54514297
      805.34416734
      610.26910923
      3452.23089137
      2884.21232860
      -2540.82784235
      4076.81295567
      1492.34398573
      -306.31925358
      2172.72976693
      120.89972123
      -462.49890698
      -584.38957464
      555.52880158
      9381.20829251
      18590.00686240
      28818.77527212
      38046.82925067
      18989.60984668
      16205.78116993
      23610.49613617
      14803.10731344
      10960.33908158
      10536.64580175
      43198.81906268
      13446.22085155
      5084.06277489
      20833.62527159
      19064.89737732
      17818.98457608
      19729.93284943
      18253.11803426
      9080.76764706
      26073.97936595
      15609.97923523
      1113.14142488
      20390.94522153
      28213.70827657
      8318.36140679
      14776.43850045
      10100.77454092
      504.11486660
      18585.66958537
      16018.89767163
      14810.51643067
      15121.79214480
      11544.75572000
      14350.41657269
      14434.38830129
      7886.15681999
      9774.01122170
      13762.61750756
      4623.20561068
      11195.01215021
      8893.68052844
      13532.78634364
      2044.51868633
      5064.75368625
      12738.00732986
      9167.11130719
      9110.89638888
      4715.15807359
      6499.77686432
      7034.45388555
      2873.92242353
      6945.67210135
      2768.77977892
      9550.50757212
      -2115.67323853
      3406.59252073
      8751.64214893
      1089.10982852
      4849.24584774
      2801.05123471
      695.38759280
      3051.08540707
      835.39723104
      217.77561627
      2588.65868019
      1356.46340715
      23337.97418493
      17493.07439445
      28731.38974859
      30430.63145497
      22819.97048423
      10567.41011289
      14037.90213024
      37190.31310856
      44508.67009908
      26756.95286199
      14744.06676644
      15219.98088690
      12020.35397929
      15327.08440970
      24914.56490964
      36870.04971042
      28203.74397518
      22221.13484113
      10485.13505471
      13309.05909317
      26622.51329132
      5673.09380824
      14142.83885092
      29694.91818349
      8102.02547319
      19992.13797334
      22201.94263869
      11818.55190218
      18422.33834595
      9422.70893153
      9163.37631196
      25667.32478389
      7126.34267562
      9169.38938791
      19020.03315430
      10057.10398401
      14124.96862060
      21009.07277524
      8977.59845531
      8779.80019112
      10932.92131062
      10546.18181253
      9563.05014591
      2091.68487168
      15946.81116694
      9259.29417421
      2067.51358290
      8613.94539809
      11629.08322977
      5058.14798930
      4221.84648601
      10690.92546636
      3099.97193632
      602.06669975
      5431.78793525
      7704.03063605
      4580.03865280
      1291.29374848
      6102.40057358
      2943.58400680
      1252.13535709
      1129.00042391
      1983.15381417
      884.38542980
      -1517.55207729
      -431.25661975
      -9986.07817260
      6771.13900731
      13835.64452778
      37446.47809723
      19782.53966985
      21108.61004746
      20236.77599708
      15898.41371578
      13825.55290818
      27988.62249990
      13811.95921259
      13543.97540925
      19110.04087530
      6440.31118206
      8244.81396643
      29348.23990461
      48093.44704883
      12497.44203819
      9337.82190277
      24183.52569606
      18045.40951222
      3852.48356230
      10972.30848735
      17793.19298796
      18478.55679357
      11040.33807290
      6922.94947067
      25228.14173296
      24458.50405330
      8063.11348332
      13090.16013337
      21440.70320651
      15330.18640043
      7769.70700183
      10743.19283114
      14129.06447180
      12632.44143248
      11308.29739957
      11580.49742523
      14544.46332204
      10095.71207217
      12406.88929502
      15718.99848334
      9563.51471054
      10765.30243450
      8780.57023607
      7047.14904633
      6174.93293822
      6052.13127121
      6632.57155267
      5945.79637056
      4484.53795281
      5123.50462367
      3280.61156955
      3447.75040901
      3186.96915526
      1646.65580028
      4958.57885381
      2053.80715967
      1705.62741821
      1657.92523702
      1872.02836988
      2228.16681252
      2687.88199472
      585.35870747
      -692.81533376
      6578.79090752
      23279.78469917
      28690.73346105
      -760.45902821
      30110.66125106
      29689.27194290
      37244.54093003
      31904.21337603
      15089.56863956
      965.46346801
      18831.00348761
      22818.91074743
      20528.14593479
      14740.12740830
      21892.30030514
      18921.85375193
      19138.65712480
      11044.69494794
      18739.94539003
      25593.91073583
      19808.83526785
      5279.35220160
      16729.36599570
      19061.03523560
      18702.83701501
      15607.27426196
      15418.56410955
      18380.37696313
      21115.44978735
      6409.67981709
      13435.10345376
      18524.35838307
      15852.22769465
      10554.98720491
      17261.78897508
      17501.06038342
      16140.90091914
      7510.03772751
      12029.06209926
      16308.28830574
      13107.92596503
      8746.06688244
      12981.15736985
      13614.57502379
      4817.06752203
      8781.58964951
      9985.13432099
      4176.51677558
      9723.68393258
      7728.92573270
      2934.77195054
      3016.67983416
      4773.62277348
      5689.26266402
      1206.12948790
      6804.50204001
      2844.27440912
      943.86426443
      3168.32793882
      2554.60628833
      1999.64273634
      1439.91069265
      758.99592527
      203.12382952
      -122.11130279
      559.40864774
      6670.79186405
      50597.29015252
      27640.12233959
      7509.87387815
      -18450.24292166
      -2216.98800995
      37615.30470987
      16850.90707815
      7380.09922051
      23042.65830843
      17245.09717007
      19706.34853018
      19017.40956126
      4465.71713296
      10797.18495019
      10335.92549177
      24023.67958654
      19056.62237139
      11532.23028943
      19943.12640200
      21989.37285752
      17012.92246569
      11825.08122901
      17896.41790921
      18530.57117823
      16114.26450504
      8027.79480000
      17051.93403444
      22627.21695367
      21585.90931755
      3034.16499511
      7618.15677362
      21788.82553937
      19055.77478883
      9315.46988338
      15726.01837329
      16870.31964158
      9997.39175251
      7779.95014897
      15328.13917364
      19031.78727114
      7449.29368248
      8495.05230911
      15508.46336442
      5392.25454622
      9448.02199581
      13483.66264456
      1419.87777175
      6621.48038715
      7062.54510367
      425.97620885
      4862.91372658
      4803.27376501
      3019.58839152
      7173.34027741
      2610.54453165
      3069.42046085
      7499.02229311
      3817.67039743
      1298.01893633
      1637.70179973
      2528.39912054
      3423.01520157
      1716.13995347
      86.63904896
      431.42706693
      -9287.10913553
      22571.44592771
      23081.65245916
      26961.07461068
      31390.64161111
      5227.85458412
      13304.06199916
      30522.09710448
      20912.26815053
      14931.35675705
      14998.37883491
      30254.77955233
      31961.84797979
      -1700.87135849
      27638.19344534
      22594.88826622
      21651.41942303
      21710.89657664
      4521.11026166
      17369.52189474
      24414.47240184
      12616.36027660
      9787.63790887
      20704.24787490
      15621.01319022
      17648.58907758
      13544.46588321
      9820.81345141
      23098.88780288
      20535.21727732
      10500.80258881
      14019.49924275
      22334.93288960
      17054.58160555
      8084.59499277
      10396.94854746
      16983.28685056
      14678.15533878
      13714.17241621
      14114.96769920
      10923.77682727
      6828.45930230
      10526.50966736
      10187.15192482
      5848.04394154
      9453.33419467
      7674.94359525
      11694.86717802
      4747.64399918
      4405.61711967
      6458.10938126
      5426.61382700
      6766.92849849
      5813.71146585
      3916.38503856
      6812.06680124
      2316.02334953
      3480.89104388
      3362.20969738
      1575.53424980
      2340.57903978
      1495.39975137
      2531.60266488
      1965.69876471
      76.54624269
      789.08081933
      15256.23671146
      35301.32986625
      43021.17794275
      22568.55024589
      38813.43353782
      2550.59260151
      15761.18208520
      29593.44630218
      36159.48778605
      10750.02876292
      5759.92498190
      27848.51256772
      12286.17571953
      12411.45693290
      14589.70086606
      21889.19203565
      23445.50425488
      15157.52112639
      -2090.93227045
      22808.86512736
      26935.42826492
      10087.89799986
      17774.77657886
      12452.54018493
      17207.08182314
      12839.15894093
      10333.31726356
      16579.31737399
      17949.89974216
      18281.05581711
      14580.99314703
      14362.26929673
      15428.73699196
      21500.31197422
      10737.81724402
      16866.14253915
      13188.54367581
      18051.96623774
      10175.74524281
      12151.83632737
      15616.39861662
      5405.15797984
      9207.19450482
      10691.69020390
      4837.74917566
      8038.06249577
      11948.24478510
      6986.39067735
      7779.78027197
      7466.42178274
      8718.92965129
      5817.09652582
      8711.39042299
      9137.35646373
      1172.44481024
      4886.52176972
      5251.58322829
      2197.61476229
      2869.89025201
      910.87155433
      1203.37375264
      1973.38734100
      684.48526294
      916.26261781
      -283.29977706
      99.10332565
      -31930.76831888
      38491.83487710
      26055.18778343
      13560.13976875
      32138.09886993
      1835.79730776
      21122.57543472
      23077.18140635
      9967.59046676
      12567.01701378
      8922.99228211
      27961.91850432
      16427.06946635
      1181.04517337
      20295.17871992
      25245.20030503
      22234.12783393
      19974.18211234
      7929.46467870
      11225.86860195
      19161.28374300
      25443.66441503
      10671.72728923
      12021.41032032
      23919.56412707
      29585.76700232
      19752.38757765
      13367.47156197
      15368.70665119
      12556.45295130
      10953.39856211
      16497.51786838
      17812.45230980
      13449.70141055
      1633.48036388
      12711.56620968
      18600.05232459
      8988.57953944
      9443.82296603
      12077.34647628
      13658.87894674
      10514.22493909
      9870.89926602
      11623.89783654
      13459.98659786
      9987.47619079
      4323.01669424
      6458.06122976
      6316.97523988
      8502.98483278
      9667.81312319
      5414.06296036
      5668.97131673
      5407.13729621
      2177.05653599
      4117.46457887
      2184.34559312
      1882.33560534
      3212.48218403
      2448.37717755
      1568.28835912
      1391.41011999
      746.22603652
      1968.45400489
      2657.96599239
      -425.80300377
      13696.41779937
      12742.50423974
      13833.76119491
      30475.39973023
      32198.28195301
      3708.56114150
      20523.77048084
      22544.57250662
      28158.06374887
      6697.45104533
      13823.13492548
      30294.12157993
      21656.84205707
      3666.20100136
      24526.88297930
      25224.93842738
      26804.66976955
      20994.56633672
      11332.08487679
      14155.73303386
      23252.34396610
      15738.07592172
      18113.45446887
      18674.46553225
      16460.99982518
      25235.21239696
      16191.38095443
      16016.14958446
      14446.22402841
      21000.57687071
      16917.78073706
      14306.51988274
      8103.20738643
      17109.31196878
      7576.99046761
      4915.23346690
      8772.90418572
      12206.68305841
      5995.46403701
      7797.43465898
      14820.69778696
      9880.93886765
      9276.81593561
      12643.78579212
      6586.47721637
      8896.32780297
      7962.03195164
      10070.08197243
      5580.03817743
      10646.09517477
      7679.10349150
      2403.82345696
      8879.65211447
      8998.33428000
      982.28465915
      1610.24339907
      2376.63160510
      676.90286069
      944.27547292
      1981.37934592
      1902.23684136
      2249.78590918
      996.24213412
      1366.02905484
      2109.07618662
      158.69035379
      6668.82184338
      33549.02424799
      23860.03126498
      17700.41725786
      17613.36057767
      29965.30332450
      19130.71313436
      9533.92509527
      11724.98050953
      5795.55960551
      11044.79711598
      18194.82219026
      17801.19464087
      18241.66672510
      3226.65266447
      14831.26273734
      13121.12239051
      20075.39789038
      13174.82468113
      5180.76578182
      17798.39527922
      21811.88418779
      15887.14268912
      11596.91499731
      10021.82581323
      16070.07413456
      14968.40141492
      6503.20581567
      10651.87429491
      15990.36126043
      21526.36948380
      14572.96480815
      9092.22077061
      8824.22600015
      5430.30478009
      8472.57857406
      15220.07267280
      11153.41190198
      11182.59936546
      9498.47890468
      14651.71308539
      10158.14502615
      7772.73914889
      13163.27881752
      10133.26635564
      3778.92916063
      9354.16243156
      14640.44198945
      5087.20645031
      7098.34229284
      8997.99586806
      2271.40496375
      5142.40074663
      4810.72962703
      1879.96576857
      6111.92397677
      3081.52942545
      1759.74784153
      6655.55253494
      3393.84398392
      765.33683409
      1869.04670413
      762.22192243
      179.37715452
      359.14077997
      -685.57490513
      -26315.91620203
      15704.23359306
      21106.33942563
      36890.74817360
      11570.63094447
      4284.68195597
      9082.07040366
      19359.57346134
      21892.72443087
      13062.04476352
      12901.20882879
      31505.91837922
      27205.48733078
      15055.30433566
      15520.75269399
      26760.49093510
      18176.76607322
      17194.37580589
      16579.20607852
      16678.13494554
      11570.59896984
      16902.41658805
      20971.83614192
      15457.05185760
      14133.09401281
      28615.10125343
      18192.42867066
      3179.63974941
      16819.54115922
      20262.83629244
      12905.20762213
      11304.35447156
      10623.24641039
      17408.66398792
      15062.02707396
      11012.33629407
      13265.15851866
      12507.36879635
      10069.96855544
      9270.24543680
      13668.11668309
      12385.06585085
      7730.38776033
      11896.29810757
      7702.05120111
      8203.27761086
      10711.89794772
      8683.85125963
      6314.55216320
      8604.31677660
      4749.46139497
      4858.81529094
      1396.38339165
      4401.00001421
      3483.34236455
      3244.70452493
      5915.46695197
      2904.45247808
      3292.19149575
      2626.25307557
      912.94363651
      2413.46721621
      966.80631567
      1687.18951296
      909.47697366
      225.70936913
      24932.02568841
      25591.99974888
      26700.50378434
      25603.19768023
      47073.27953826
      -9032.06454378
      15329.67333468
      27563.66070984
      29767.59764097
      10886.16831973
      12138.63566920
      25876.89833471
      33229.77318364
      12918.79666650
      11726.32540923
      16166.65515567
      25661.47988262
      25057.37042002
      17842.32735601
      13252.03781645
      15740.32186399
      23455.67820016
      16993.65464924
      13675.31880619
      14210.86843276
      20869.28729894
      16100.01587725
      10070.03824739
      17162.54162168
      17434.81729967
      17815.34575627
      11361.81566519
      12024.22142899
      16427.75297138
      11980.03891873
      4264.40401298
      7677.07185016
      13419.87012972
      10212.65471983
      7529.51522023
      15635.28947298
      12296.12706086
      8780.89152715
      10938.89840706
      13962.01446903
      6552.29251695
      11231.95497099
      9404.34709256
      246.83707371
      6559.93543955
      6050.86345097
      2261.99623025
      5698.31945944
      6157.15562379
      3635.49714362
      3752.88401126
      3217.54682289
      351.77358337
      5004.84272904
      3175.52123143
      421.18322331
      2856.47729895
      991.18628013
      475.02063629
      -265.54479933
      70.14196264
      -19088.17183107
      17101.18384646
      10941.08031853
      9201.29776196
      7232.57651961
      20646.82782908
      10271.12688453
      23014.41699266
      20988.34710632
      10988.27977268
      1413.88009163
      13213.49173134
      26419.17576799
      19372.41235841
      11078.73377056
      11318.29322257
      13208.91021699
      27129.79306662
      22393.94766941
      9496.21393107
      11189.90343714
      17007.72386078
      23401.08620931
      17948.23755335
      11199.49669085
      17510.22396751
      27329.50943676
      16512.11484883
      4481.99056821
      15713.86484481
      11031.43769305
      6065.92907001
      16633.99264597
      15920.05350900
      15071.36572300
      6682.17351757
      7725.19468688
      7105.80478666
      18787.53544384
      9229.84489333
      11463.51012853
      12025.80782810
      5368.23169178
      7255.01305688
      12589.48960505
      9844.40386388
      7088.65519210
      9766.43535200
      9198.90661656
      2481.20955454
      3465.56639144
      6051.32111322
      4209.43002387
      4792.54743106
      2033.51230512
      5866.85568004
      4834.07015456
      -1058.18946910
      2503.33640101
      3235.71287086
      1457.61538368
      2048.07540522
      998.29680634
      1354.49909452
      1230.35984230
      52.51271918
      37765.34460885
      7350.19394541
      4225.21098830
      4703.92489124
      11173.51457644
      22766.50213560
      22069.55345253
      25653.61427684
      28891.05727189
      22250.83183628
      -3274.53276791
      2184.26406178
      29045.76147610
      24360.70215795
      13933.19925391
      12811.44496748
      26923.67732188
      25589.37396018
      23879.69923381
      23943.31612780
      14056.04613544
      11595.29846699
      21909.80560963
      10729.83604900
      2953.87976543
      5395.16268821
      12251.79051338
      21238.72426684
      13136.98961027
      15923.50477167
      19062.19895245
      8837.42610675
      10943.60987330
      1817.10488611
      15121.08106416
      5592.21607377
      8648.62812914
      16189.81241567
      10175.85363651
      4317.57308987
      7051.00169052
      16024.90987359
      16901.99480282
      9041.40219583
      9469.69867513
      8995.73470253
      7238.27552054
      6637.92677256
      7553.80946397
      6159.16008994
      6556.45267197
      7687.60464742
      2317.91161034
      7430.41895455
      6509.27496709
      2106.74318697
      6357.53723773
      4223.04032893
      128.28691783
      2230.22731928
      2531.12378047
      1759.81538764
      767.08828494
      1210.32969845
      972.99649323
      282.95016715
      11630.40037814
      16420.96346673
      21247.34386418
      11822.88855171
      13535.93563312
      30861.06401881
      20014.37194148
      16976.85613889
      28014.71878518
      15096.61756456
      7715.11538513
      17355.52077931
      20926.02803131
      18908.84572537
      14849.75926356
      1160.31607510
      15005.07606409
      18692.80589022
      23015.77853995
      21644.33469999
      4431.44669381
      18686.18200372
      20427.76097718
      6846.54244082
      6753.66125968
      12060.92893652
      12940.09580223
      15508.51083374
      7640.00015328
      15234.62377271
      16306.19165960
      9863.45031382
      10400.25475214
      5049.67158451
      21580.52376272
      16118.02264791
      3522.05637342
      12797.04790223
      11869.83199919
      10582.81581502
      9941.56664800
      10516.66125032
      12266.55066328
      13713.77739789
      6332.10911566
      9357.59462747
      7707.29601933
      11435.33131120
      9082.45870335
      1454.16853862
      6782.08707338
      8144.79784682
      3202.68467201
      6868.40088379
      5889.86314534
      2702.56476269
      3714.65610904
      2670.32579559
      2449.64561149
      2880.74825450
      1938.62540767
      1515.98965757
      619.72921436
      296.37207154
      -148.47353108
      15.14249510
      -8467.81262988
      38377.22671779
      7657.44346505
      9283.85577905
      30095.58422343
      -5603.20819737
      2641.57832751
      23179.30589968
      8229.30522486
      21144.85563142
      -125.93873969
      6100.26569004
      20862.14939131
      18546.89286358
      11898.86590537
      14555.89537543
      11962.23083607
      9571.20593153
      13872.71416831
      10371.22145018
      12904.89169635
      12885.66529203
      12458.55604565
      16195.82632821
      9891.38916604
      6640.53300081
      7053.95631681
      18190.05295685
      11478.94261575
      7899.37038740
      17614.32149488
      15098.15425483
      12537.34519900
      5262.10553117
      8786.20703584
      16799.26347285
      3173.99291837
      8281.68942644
      16167.50625115
      5759.43586500
      8178.53328507
      14434.64222459
      10267.60266488
      5587.53203772
      5148.94138372
      8376.43243825
      4311.70457480
      5669.06859681
      6330.36416771
      7432.95025506
      8116.12109710
      7077.42126763
      3654.17646344
      9097.46808479
      6367.61703931
      155.68920043
      1644.58372553
      1092.40027691
      1542.40154192
      1097.64950442
      382.07446670
      1355.88059820
      1505.40949105
      382.61417358
      -777.72966636
      -363.10919041
      19831.81610070
      13195.95743215
      7597.13731919
      10106.93144139
      22071.86909200
      16906.89171931
      8008.79270901
      30491.92000163
      25556.17237259
      13437.23695186
      10535.01239854
      14167.53372227
      21018.38351354
      9580.60920781
      22865.95639880
      17174.43512102
      9745.56017400
      14854.26166121
      19719.15382794
      19849.29866466
      15170.50750885
      11455.28275802
      17557.65065404
      16136.62746003
      7291.34063129
      16763.11808576
      11241.84592559
      7005.70647980
      8889.41838175
      6546.64818848
      13683.13478970
      14596.37436885
      7121.93393544
      2809.27323142
      9731.38266758
      12802.07731875
      14990.66786712
      8509.65226540
      10808.22153455
      14730.65978161
      4891.23861636
      8027.14959279
      4906.63216381
      2613.15316995
      6897.51554432
      10383.47332597
      8327.97330556
      5631.02657202
      4240.42453100
      5573.67625292
      9755.66880576
      8861.92775082
      -282.19433504
      5879.89335169
      4397.57847810
      1085.02750068
      4651.25309371
      3114.77556369
      -686.73436900
      4017.18900229
      2656.32776678
      1671.78212030
      1331.10261049
      896.01394381
      -1382.86327462
      88.94403339
      19532.60727960
      15000.39058612
      8521.13536793
      15347.75302919
      25410.91441730
      8990.66699714
      1390.62915255
      -9067.99646620
      20143.22982487
      16264.82120564
      5886.32717228
      -5870.94633989
      15437.57743542
      9646.53588241
      13446.50008436
      16598.39692301
      12199.88604799
      10761.12243732
      3896.30066576
      22015.13159715
      20968.05659480
      6036.55954617
      17320.26967188
      12115.11615086
      17954.37163053
      15141.47180661
      7244.14847606
      12331.41969282
      17823.69372069
      6882.27787405
      7832.38266416
      10487.49835717
      8275.70966827
      10336.34841444
      1322.73780315
      7152.65460285
      12363.15651268
      8287.38163222
      14701.00523534
      8413.05283781
      6434.51910846
      10047.68573904
      12351.56721070
      7933.19818373
      4395.37816283
      6181.38305018
      5995.98944456
      5525.16926723
      6568.78926255
      8444.74449356
      5123.40895548
      8716.73519991
      6653.53007172
      1392.82322362
      1542.93414754
      2002.17496490
      4445.23491330
      4260.00379497
      -570.65296816
      2234.86657927
      1374.41784039
      1376.52990568
      966.75434152
      -470.89327871
      925.94716135
      329.55250374
      -24540.64429157
      1589.41502535
      6662.85796137
      9534.59484076
      25546.84761002
      11425.61890509
      9816.17784837
      -355.02341849
      31804.62295004
      18886.31126917
      9053.62439968
      4383.95644311
      14247.96006002
      13035.92080636
      14392.09288437
      18399.40926578
      22436.15850980
      19875.94771595
      11647.24249879
      17145.94729007
      18407.20554460
      12080.68130358
      85.18044146
      14686.15461744
      21763.01517241
      17527.63696364
      93.71231465
      15262.30171208
      12591.63093641
      4060.29200388
      11715.35240157
      11680.22006266
      9845.22540113
      8942.99044181
      6234.63951291
      5298.80237397
      7463.43131152
      4124.82077414
      4437.60816218
      5183.29982470
      437.20951233
      5051.11149653
      10269.53418182
      7964.41160752
      4171.06234829
      11113.20298401
      8784.95553503
      5156.56934445
      4564.32429021
      5543.72287681
      3227.15525199
      6368.75675786
      4779.99847484
      4491.23343071
      5150.26823527
      5146.53340098
      32.54337469
      5374.10809693
      3009.39325386
      1218.32962300
      324.22406101
      2021.19886854
      1193.00329561
      214.16143192
      -175.93896439