<?xml version="1.0"?>
<VTKFile type= "UnstructuredGrid"  version= "0.1"  byte_order= "BigEndian">
<UnstructuredGrid>
<Piece NumberOfPoints="5123" NumberOfCells="5123">
<PointData Scalars="Pressure" Vectors="Velocity">
<DataArray type="Float32" Name="Pressures" format="ascii">
      466871.41699871
      121300.73088860
      65157.21451211
      5522.37036042
      22094.31656242
      17528.66452166
      20312.53659206
      4378.80116545
      20643.85385876
      18042.08094989
      4866.96589767
      15452.00162169
      14778.27491919
      11519.12499343
      13987.01103068
      2188.14164888
      11586.44742792
      10393.69433217
      2178.05521934
      9070.76055442
      7869.90421002
      2749.34279822
      6891.82387362
      1604.63344152
      2320.89687717
      3720.97643906
      1871.44621473
      3010.22042826
      114.97034892
      1746.92063682
      1976.41866383
      943.40698770
      1165.36047111
      2113.86376429
      534.17215220
      2085.94470636
      133.47893053
      -386.18145315
      1117.32920839
      1036.39304170
      2005.59335724
      -137.76224613
      1107.43191017
      2008.30525342
      451.40265509
      1315.85822104
      2801.32398349
      2001.95057694
      2752.02197411
      694.41091333
      1030.72110355
      2745.33685619
      2838.95475352
      3247.85428174
      664.78600004
      2660.50466326
      2820.24495128
      974.03247560
      2754.23128699
      1840.00678738
      2421.32182738
      1810.24500495
      783.69957916
      884.59780689
      -144.81320345
      5.48903146
      153648.93956811
      124496.49440340
      150189.06852338
      -5050.30309982
      9224.51870270
      6206.11211490
      5200.51258040
      3837.23151807
      4014.09251259
      3449.19627722
      2311.74014730
      3320.90364718
      2812.30555400
      2624.64884309
      1195.64502094
      1710.18573556
      1614.20968422
      -14.26494710
      -2095.81407207
      2604.13003950
      1112.80493472
      585.12197066
      -337.11067710
      -687.79361234
      672.19915287
      -467.93594866
      -998.50478972
      -1555.93366630
      -821.09943366
      -1193.71322045
      -2262.46129185
      -2338.10659505
      321.40796602
      -2027.43128541
      -1173.43981958
      -1617.98550792
      -1037.11426631
      -235.92306725
      -1673.67971805
      -1298.05559198
      -1223.56162305
      -181.93443390
      -1060.11388205
      -1956.22267780
      -886.94990985
      105.22246564
      -1016.35366714
      -381.15328613
      -1055.96894875
      400.83531908
      -372.14788667
      93.59772750
      -184.43851044
      -493.37826553
      919.40532182
      -113.70049305
      62.73930874
      253.74417319
      590.99224198
      710.85621333
      807.49108096
      475.73272253
      725.88416306
      647.79112978
      559.89579103
      153.82300896
      76654.14679085
      85735.28062306
      -19569.97404203
      11957.76223782
      6880.08277511
      7179.14702566
      8059.12836656
      6568.97312247
      3167.30695419
      5612.64379592
      8149.00422093
      2704.27084641
      2631.44851631
      3527.69089238
      3441.09401511
      5079.50380083
      2874.72525439
      3412.88708171
      2962.17730394
      2101.28760891
      3480.46584868
      2414.80437018
      1071.02162889
      5167.73555660
      -776.25813774
      113.41986160
      399.62774228
      366.74019948
      2033.67116932
      -826.72973780
      -754.27075722
      569.70291393
      -867.57453043
      763.29987363
      -258.69682563
      -1683.79426944
      3098.21036672
      -2540.17826733
      -1985.49519731
      -656.78152699
      -502.20553499
      1168.38351692
      -1281.27991404
      -1317.32029720
      273.85181567
      -1298.89813379
      16.01613706
      -41.07530292
      -730.40181563
      2266.79784522
      -1330.41970480
      -969.96825666
      256.82187876
      371.79226006
      1530.39409416
      -407.62599147
      -68.11377958
      962.79270634
      -193.01735498
      -219.61347020
      -118.74571940
      259.80960302
      622.63383979
      -485.67043808
      -1718.19195042
      263.39883723
      15408.35979192
      277.10921125
      7411.67019347
      16195.96813758
      8424.38462049
      2060.66825875
      5449.03252343
      7911.35438556
      7427.40675748
      7076.58500517
      1222.44321617
      8528.51818864
      2314.29493262
      3912.71699486
      6246.90095716
      113.63481754
      5258.39147747
      4998.03557117
      -1122.05779531
      5295.67626881
      2357.30671114
      506.23019362
      901.79678167
      -2075.47314062
      1854.28298710
      -1100.89098939
      -1181.70949762
      696.41476667
      -2579.14301280
      -392.77138092
      -1358.33874002
      -4775.98446396
      -839.50036993
      -1787.48162735
      -2217.08438098
      -994.07583820
      -3564.81232643
      -1245.92822502
      -1663.12152357
      -2689.96769420
      -674.56634806
      -2859.01277913
      -664.93126568
      -1233.47085935
      -3396.20769887
      -141.08392219
      -951.39329926
      -564.78735342
      131.52142246
      -1741.14235445
      575.16903181
      -149.87679872
      -1307.85344236
      -389.85681310
      -834.64254877
      820.23678499
      674.97723198
      -1240.13039572
      1355.79233291
      981.95809258
      853.73303204
      1048.24584302
      172.97309193
      964.18734189
      710.77079336
      104.79532739
      19559.59380212
      13076.16647683
      -900.27315820
      9030.87237815
      11099.94932532
      1596.44854111
      2778.80271342
      4711.36687369
      6154.97196194
      5657.51908897
      -117.83506336
      6270.79597168
      2887.93157099
      4320.24760347
      3430.60625060
      -304.53016530
      2999.03113029
      3348.72865742
      654.93913051
      1081.60344604
      1673.25361283
      1058.70476204
      -396.99341365
      -729.55420947
      -600.01157052
      476.56332493
      100.42280197
      -1913.97341897
      -803.81718260
      -355.14125679
      -577.87913205
      -1030.36881473
      -2469.81875811
      -865.96553077
      -917.53833157
      -2497.94982231
      -1905.51255994
      -2781.26325613
      -798.16975428
      -1586.81861152
      -2845.05373246
      -832.51471228
      -1245.61473175
      -583.00314270
      -906.74605007
      -1627.02781891
      -36.56605796
      178.87603668
      -653.49878547
      -283.22317128
      -501.84290479
      801.63210333
      -380.83386324
      -516.32671590
      871.03590838
      392.09989900
      1411.71855474
      329.10484610
      1050.89820422
      798.83409466
      1327.32820404
      1376.29331546
      244.15377318
      942.48485699
      53.50429326
      56.58186926
      14222.08123349
      10843.77852443
      2388.87342697
      9950.46167556
      13408.06739837
      10980.46268457
      8149.12792562
      1798.30495126
      5438.46252086
      5649.56755998
      1464.65544399
      5017.73069697
      5125.44609957
      5328.68730109
      3613.43737214
      402.05957151
      3044.46790214
      4220.25448589
      1501.08516434
      694.76465294
      1985.03102031
      697.70428625
      354.21775672
      -1962.31488142
      -1202.42510572
      1424.73873571
      -226.00218697
      -1653.95628909
      -1713.72005027
      -1045.73950465
      -543.18417123
      -444.57427651
      -2693.54994963
      -644.55629827
      -500.04821867
      -2427.11225619
      -2357.77569978
      -2943.19605625
      -834.00635862
      -1550.88005971
      -2703.02847891
      -1712.05048191
      -1354.52697598
      -783.35565169
      -781.83295587
      -1472.83593100
      -203.60587766
      612.12946349
      -489.93499560
      -883.83142939
      80.46699703
      499.90179490
      -1000.97995505
      -500.39195978
      -86.46018766
      336.76748731
      1013.50775420
      -325.83135985
      1241.82444358
      564.63147262
      951.99725829
      1310.19358638
      -50.15223765
      1298.42332374
      484.95106093
      -54.12421961
      15938.42646521
      10929.22379978
      -617.63989825
      10928.53219723
      8423.55228404
      7791.20801791
      8734.85408196
      -619.26495498
      6546.30840870
      6254.43708817
      -3134.52833392
      5575.12492999
      3535.20289603
      2762.05607283
      4604.69570068
      -1733.51689437
      3354.40570857
      3443.74109329
      -1890.62697186
      2731.05958963
      1225.98537686
      -246.68920426
      -545.83797509
      -3540.87219748
      -605.89595669
      -1389.66254060
      -1735.90439750
      -585.00186273
      -2469.09329247
      -1288.28166457
      -2227.93942352
      -3759.52091400
      -1813.17123376
      -2813.42131810
      -3131.46063037
      -3599.67354472
      -4172.38545652
      -3069.24573307
      -3801.13550067
      -3337.02254510
      -1672.19247043
      -3101.51238243
      -2317.45165068
      -2350.20500594
      -3433.59257288
      -1335.78508581
      -1780.44928455
      -1232.77184535
      -837.22626039
      -1512.58456584
      -533.15109133
      -357.93351913
      -427.86328961
      447.69664779
      -261.10093982
      826.92981543
      1461.30682046
      -806.62059798
      1813.26189549
      1951.49995309
      1670.40125713
      1903.30057712
      427.13162046
      1219.49417248
      966.84911869
      164.55895318
      -14273.96432426
      1984.46280691
      13324.46919088
      637.70662684
      2376.76407017
      1674.97390178
      334.67784963
      10040.10325610
      -518.85840004
      -1528.31567688
      7673.87202766
      -1158.24122091
      891.63215595
      247.33600237
      -1008.41140987
      6542.90350435
      -1990.42706317
      -716.70154603
      1822.89040695
      -1023.54676976
      1175.83922609
      -1225.10519327
      -2301.94292137
      4050.59279376
      -2940.34292492
      1007.96585021
      -837.03272679
      -3312.98645598
      3016.11295178
      -2226.77936380
      -2163.67290458
      121.00656021
      -2858.11369302
      346.76235954
      -1369.02440124
      -4254.17557892
      824.54082859
      -3835.36767422
      -468.15729460
      -1456.43950511
      -2741.45354703
      1507.28467814
      -3028.87442513
      -2467.91300856
      726.54053125
      -2500.39197599
      -1086.65791775
      -476.26956326
      -1985.45256939
      1259.82833012
      -1499.39720632
      -226.86576297
      -278.90508167
      -586.34221981
      1672.99922612
      -762.47593719
      -496.35939400
      996.89892276
      180.97151674
      -382.11525339
      1.87782066
      221.79456697
      547.17451590
      355.37798931
      -198.02957414
      168.16251451
      13111.78994309
      10207.49990080
      -1116.40269650
      10040.59730404
      7008.33199883
      6406.39148161
      7576.44112149
      -667.93442322
      6157.83677326
      5597.40003225
      -2141.18550254
      5447.38775760
      2967.91078178
      2843.43542789
      5001.60500354
      -1826.21683469
      2775.32638714
      3178.51397536
      -3115.27817646
      2096.61279701
      1074.04637080
      -519.66549563
      -111.39940821
      -2775.37425913
      -643.84084365
      -1714.98563466
      -2179.47903448
      -473.61549226
      -2821.91262333
      -1963.81050707
      -2100.03309680
      -3789.24984774
      -2308.82452342
      -2617.18078988
      -3195.87977102
      -3392.45404886
      -4283.87043085
      -3931.08932892
      -3784.04785485
      -3973.98961459
      -2789.31450132
      -3821.45400448
      -2881.54817958
      -2583.32197875
      -2763.53789389
      -1918.30697048
      -2391.83016927
      -1865.08757914
      -1315.84590775
      -1950.82628915
      -301.37315119
      -516.60077236
      -1090.03117804
      172.99671743
      -544.56125569
      1051.75712878
      1764.54595049
      -781.91934154
      2390.10081907
      2138.58463478
      1723.04332198
      2040.92802022
      484.70898896
      1512.28222455
      1073.12484311
      134.41893155
      11134.89368117
      9399.22950855
      -147.94784504
      7834.32320728
      10741.47381090
      9439.28561676
      6232.11930093
      5.32490196
      5807.87006036
      5329.84431358
      -739.56457896
      3962.64496028
      4830.36987325
      6114.43874036
      3093.71666169
      -766.87615878
      2386.85767370
      4358.07024559
      1675.58522459
      519.38541401
      466.82977869
      803.31864442
      782.17271688
      -1850.18859459
      -366.33886992
      625.97537291
      1254.64144126
      -1904.90641216
      -1917.96388065
      -1567.74018613
      -1921.83925413
      -964.13257215
      -3334.03962414
      -1819.89041972
      -883.50343603
      -3301.27594114
      -3135.91853688
      -3791.30384944
      -1110.41061971
      -1480.44796545
      -3843.10785850
      -1814.06414263
      -2427.56007092
      -2191.05258906
      -1251.86029859
      -2367.30017766
      -457.59320965
      -49.60150881
      -1490.33812318
      -1051.99867790
      -1158.97284365
      775.34641833
      -661.28826543
      -779.84773624
      613.41986062
      267.18373359
      1347.45884452
      -309.70765368
      1720.85577874
      1067.56198437
      1494.33127712
      1849.01847480
      -80.48789947
      1567.70531434
      441.24275051
      64.91735613
      10433.49106199
      8795.41306210
      -254.66389750
      7816.80063315
      10228.69570091
      9676.18737338
      6379.14852497
      -168.32279419
      5816.71993724
      4751.67389404
      -154.34169706
      3745.81849115
      4814.64111619
      5830.37419161
      2637.64670128
      -323.94200113
      2096.83789940
      4204.23941935
      1621.38848436
      900.63217928
      496.81783982
      264.96046037
      -489.06583620
      -2168.92587810
      -790.15728537
      1217.04568050
      353.88208243
      -2684.92324436
      -1535.51986574
      -1821.68215568
      -1443.55434103
      -946.76094065
      -3137.10245770
      -935.35820156
      -1101.36086836
      -3643.69934212
      -3106.39587847
      -4140.27057620
      -252.54906162
      -2210.45603804
      -4672.74479448
      -1729.91044555
      -2964.84852455
      -1918.17952938
      -1185.68088740
      -3151.56560425
      -691.82927450
      -219.90068890
      -2228.43631288
      -1362.41530984
      -1008.86024714
      694.38671400
      -676.54372243
      -766.70724304
      341.75006685
      720.92866664
      1666.33336546
      -187.72092727
      2064.22742650
      1093.07436300
      1532.31654732
      1901.49881641
      -166.26796018
      1611.12809891
      554.22200242
      -133.50779352
      14279.73347604
      10026.19704255
      -1726.65955748
      8324.60197109
      6457.65173845
      5850.12231390
      7183.98458892
      -1207.23097158
      6055.30938128
      5487.81291003
      -3061.17395259
      4492.71952903
      2685.58771935
      2527.17919879
      4486.94849034
      -2436.46497944
      2442.34956453
      2604.69818655
      -3454.96019326
      1858.80090049
      973.97554184
      -1027.59030880
      214.76821056
      -3186.90840324
      -868.90573956
      -1014.19685359
      -1322.81772874
      -811.95527189
      -3317.18459474
      -1844.52118344
      -2468.50325000
      -3458.75520033
      -2513.64666297
      -2214.66404380
      -2990.41434235
      -3073.41839786
      -4700.14580270
      -3542.63294528
      -3337.50878352
      -3918.86576751
      -2886.21176032
      -4256.01151109
      -3154.36401544
      -3120.08890191
      -3544.82330192
      -1963.67348996
      -3211.24467685
      -2071.85211259
      -1380.92776712
      -2388.33698795
      -366.47897250
      -729.57912196
      -937.97472755
      766.01641584
      -559.52387722
      1305.29688907
      1907.75977334
      -979.44020950
      2595.66326580
      2433.99133295
      1729.53929980
      2349.49387564
      416.23012232
      1515.85014262
      1416.27242672
      103.87109454
      -14077.53918576
      1453.98152483
      11427.26768290
      -69.45165430
      1436.50051336
      826.04787355
      -236.81153040
      9674.89748547
      -993.94033012
      -1871.15761994
      7168.45083193
      -1593.45858659
      -41.20434397
      -91.30717375
      -1329.40610364
      6774.09858983
      -2555.86180890
      -1171.83394511
      1181.22971003
      -1406.93036781
      1952.63184853
      -1426.57986446
      -2997.63915837
      4255.32518122
      -3895.18740266
      -535.54102210
      -1406.34198547
      -3354.46195851
      2645.66904396
      -2421.15383516
      -2273.83983273
      42.54279862
      -2683.35719718
      324.29400545
      -1852.75522633
      -4710.97569448
      1385.25268752
      -4303.88206841
      -985.65544178
      -1466.20392687
      -2971.50195481
      1364.90208511
      -3668.53112240
      -2968.24345740
      628.62564472
      -3628.40430062
      -1711.54074635
      -1115.62473928
      -3009.18853382
      1348.31534667
      -2656.12094522
      -297.64694988
      -440.24703939
      -1003.31939936
      2203.93017144
      -1129.36551541
      -373.56973962
      1569.38321987
      13.10046569
      -188.37632727
      200.90809826
      301.61334046
      704.93102566
      398.91362749
      -371.50196895
      331.63197586
      12643.52382426
      8461.34392941
      -1030.92761588
      9005.53894350
      6995.04183307
      6712.81311688
      7891.09211093
      -1203.89931169
      5908.63027425
      5147.22747701
      -3457.67216203
      4514.57314719
      2995.61353190
      2987.25011416
      3795.47941870
      -2158.20911369
      2384.66457942
      3259.53935982
      -2315.44813139
      1330.17121119
      815.39296626
      -1405.79746813
      -503.01279211
      -4253.87661884
      -583.92271808
      -1404.66674328
      -1172.24421744
      -1017.51709857
      -3151.21752996
      -1641.88286186
      -1755.59665367
      -2702.26101584
      -2185.05198064
      -1906.29262871
      -2186.57103668
      -3574.68510257
      -4693.60522050
      -3258.18120022
      -2814.81192732
      -2495.40750471
      -2947.83382452
      -3413.54741883
      -3231.73830475
      -3113.08459202
      -3034.29145124
      -2924.59364903
      -2111.56140484
      -1545.43690627
      -1495.28048923
      -2735.24671284
      -1001.68090379
      -498.49131497
      -798.13603413
      62.64623860
      -306.08345847
      1447.63709573
      2115.52465300
      -919.99069057
      2759.12680131
      2061.72465633
      1936.76459358
      2530.97026242
      -42.17395302
      1925.50924421
      1271.29332482
      -101.92218843
      13472.08719920
      8908.30473205
      -1175.49779585
      8932.60015170
      7274.79561585
      6725.95986084
      7746.78894147
      -888.81122728
      5552.42272177
      4981.77706442
      -3148.96084840
      4486.92730662
      1920.24305697
      2920.21898471
      4127.15276796
      -1984.08710854
      2902.04062944
      3198.06582505
      -1991.15701469
      1532.57155080
      312.72667364
      -1121.64388981
      -333.38965165
      -4296.74923347
      20.98137554
      -1498.02351254
      -349.55672978
      -204.06298122
      -3099.21921460
      -1268.07232715
      -1485.44140813
      -2527.89844263
      -2013.43436221
      -1392.52828861
      -1512.57331530
      -2900.60119346
      -4578.61054973
      -3128.02248383
      -3114.45617709
      -2339.51489104
      -2689.89874324
      -3559.07860259
      -2867.51415466
      -2864.73149151
      -3037.01768493
      -2574.82986706
      -2160.79520194
      -1341.01128263
      -1286.59335574
      -2777.90812840
      -1107.83577855
      -410.15758663
      -846.14902972
      42.57477383
      -299.33708960
      1590.11229451
      2166.39058190
      -871.14276040
      2828.11725090
      2198.32497202
      2066.62631031
      2676.72012538
      -6.74343929
      1913.55870327
      1389.87182677
      -102.98975098
      -13709.43683933
      836.16267182
      10723.38791386
      19.61001272
      976.14733081
      633.27239114
      -272.25263426
      9304.09003629
      -1189.05738923
      -1656.87498980
      4846.91205388
      787.91943112
      3964.59404609
      -687.88513766
      -2022.63168060
      6427.65294361
      -2393.21282379
      -1774.18173369
      128.17586057
      -2690.07721046
      3640.50999349
      -1983.31280488
      -2804.35102012
      2978.80110539
      -4581.02903163
      127.13835231
      -2004.06779116
      -3747.77891158
      2172.52286951
      -3158.13672618
      -2502.71224948
      -10.42278025
      -2791.73299944
      510.71792183
      -2303.21129363
      -4816.47788779
      1427.39884631
      -4372.51307139
      -1052.64659905
      -1497.22839645
      -2990.82526358
      1459.69850154
      -3509.46109222
      -2902.95011074
      1044.45679165
      -3658.93003934
      -1721.85537441
      -1203.32796682
      -3115.50399605
      1349.40716229
      -2799.84306359
      -309.06838223
      -531.28782093
      -1369.82472084
      2161.97760372
      -1262.81712187
      -442.36142120
      1657.91227125
      7.91907032
      -280.15923289
      144.10110624
      295.29055417
      687.46199515
      411.82598208
      -423.52108832
      324.52228577
      12178.47375457
      9558.89781312
      -1849.74669572
      7852.81752014
      5990.44482677
      5371.72335595
      6752.76286780
      -1542.97713804
      6363.04465421
      3477.22743595
      -600.57774204
      4793.59963710
      2754.86271203
      2291.96733769
      3175.73707652
      -2645.21785033
      1966.36962221
      630.88495387
      -645.77356775
      603.44884401
      -2794.94271618
      -523.92452964
      -1210.73704589
      558.43559100
      -352.93809860
      -664.40068463
      -1567.60769325
      -1097.72095792
      -3658.72470340
      -1549.99573000
      -2030.03197066
      -3047.36141140
      -2664.32412972
      -1838.32078999
      -2309.96298682
      -2722.06383375
      -4187.52364710
      -1108.39795807
      -2762.31300481
      -4168.77931613
      -2911.91713516
      -4265.49381033
      -2882.01576785
      -3302.26163741
      -2855.14235001
      -2195.61287707
      -3282.47603888
      -2120.90691270
      -1407.79415993
      -2404.76795348
      -640.80591080
      -1165.21483466
      -1466.51689061
      465.72330958
      -349.55532880
      1343.82149593
      1879.78905603
      -835.92370377
      2655.43648587
      2601.93970101
      1909.17538880
      2457.40257221
      489.48318070
      1641.28655271
      1472.81250102
      81.56275649
      7817.30206122
      8440.87554178
      -786.43912607
      6916.35298792
      8960.31598723
      8435.50265335
      5908.64490125
      -671.81642420
      5384.99100126
      3974.86040087
      1134.94712733
      368.96925962
      726.63671359
      3857.67494980
      718.28614694
      -484.55061096
      1246.15050757
      1775.16332512
      3171.73482398
      -307.66922863
      -2865.43372872
      554.82191540
      -680.61728461
      130.31934100
      -346.79631213
      1852.31760791
      -922.26207717
      -2727.78078580
      -2046.53760354
      -1449.32510764
      -980.61750580
      -845.02883797
      -2730.06321459
      -707.63697344
      -330.63992363
      -2972.97281549
      -2999.04666024
      -1840.82538982
      765.32607924
      -2413.37005215
      -4607.64089626
      -1743.07168925
      -3005.91161321
      -2211.60322047
      -1281.22853292
      -3058.53648295
      -626.53052615
      -524.86675383
      -2405.49600811
      -1536.55023040
      -1663.28428986
      337.03393860
      -1648.04704552
      -956.51523051
      647.40778380
      274.66518422
      1680.87691891
      -291.20127533
      2244.36539767
      1254.95262466
      1628.73413956
      2097.14281734
      -190.18224314
      1679.45931616
      475.18434346
      35.20131498
      7687.38670138
      8323.80557757
      -609.33459224
      6688.23655788
      8663.88940663
      8291.79455307
      5493.04184047
      -99.92902058
      3933.57507568
      5044.64162295
      -1999.08003974
      3370.68613333
      4736.59197143
      2440.29488026
      1311.89950784
      -1278.20756165
      631.92781876
      3616.97189032
      -475.93952292
      -405.58304689
      1310.31112990
      -864.52925897
      189.29807519
      -3806.93790498
      -1299.50464504
      760.53475824
      -460.39023825
      -1876.10505500
      -2141.85616351
      -1307.49232091
      -1091.77620044
      -376.06883860
      -2453.94002704
      -751.02979766
      -424.20562366
      -2619.74429304
      -3876.91663322
      -3458.27050930
      -61.22358689
      -1654.45038772
      -4421.96668653
      -1722.33982430
      -2565.15097927
      -2490.11293060
      -1410.11270267
      -2861.88971521
      -274.31641283
      -137.79774708
      -2071.03343676
      -1248.94451685
      -1778.20182577
      593.74781351
      -1280.39437740
      -1052.77146065
      1238.94333719
      6.23255765
      1241.64744686
      -450.68874636
      1799.91784995
      1154.52687132
      1466.77898692
      1907.23342610
      -216.44454040
      1609.23005424
      464.70455373
      55.10479563
      12478.88097049
      8904.46050916
      -2224.13867076
      7631.82818777
      5472.90360744
      4965.02706326
      6236.99774454
      -843.16957260
      4592.58513815
      3687.37551092
      -2179.77399886
      3680.25625065
      1337.01504947
      887.20797994
      3011.83332297
      -2522.51449626
      1223.25466274
      1607.55164771
      -3916.66619595
      915.84539592
      -169.44764339
      -1438.13358507
      -448.84839710
      -3374.00023506
      -122.32390165
      -1290.88545051
      -1711.70488733
      20.03033924
      -3000.59735941
      -1294.12986316
      -1574.53731693
      -3338.49153234
      -1855.56360794
      -1817.12661582
      -2280.98005513
      -2393.76567162
      -3968.52595724
      -2714.59853326
      -3732.94899549
      -4713.15150214
      -3151.09040978
      -3894.89031268
      -2539.39194650
      -2859.37221021
      -3095.61356662
      -2318.54197533
      -3182.91132913
      -2499.47143569
      -1639.52375250
      -2462.09556221
      -1241.26606645
      -1185.35658180
      -2329.89420571
      -391.97795387
      -216.32599864
      953.13043043
      1718.74360686
      -787.27171938
      2421.36098599
      2387.50770725
      1925.78953343
      2310.31829021
      360.50522234
      1569.51682730
      1312.33575248
      63.70573325
      -14209.98816126
      181.77807250
      10239.29781021
      -215.09307722
      1051.13825006
      823.60081800
      -532.47910177
      7687.86738263
      -989.90231123
      -1951.83609142
      5791.68783298
      -1912.12170054
      42.76934027
      -957.61956499
      -2750.74875597
      4785.59060134
      -2279.23961199
      -1592.61054280
      1608.13711272
      -1687.59731677
      1554.63776070
      -1699.66853012
      -3626.41117354
      4398.97917993
      -3235.34828494
      404.70097227
      -357.34312561
      -2468.75772914
      2238.41299518
      -2921.18049064
      -2081.77101766
      -0.75183719
      -3302.75371777
      562.83903724
      -2170.96437664
      -3958.92858417
      2296.99368700
      -3573.45750897
      -494.58865604
      -855.71700392
      -2268.65885989
      1671.63572528
      -2789.10061902
      -2266.16097687
      1477.74262132
      -2873.03278735
      -1211.87223296
      -633.63787069
      -2322.71661299
      1515.61005367
      -2253.62990608
      -360.77813911
      -407.93257022
      -1209.82346805
      1404.35009066
      -1197.78201288
      -427.07804616
      1358.83597615
      2.41726733
      -644.89292323
      -272.57554454
      77.36932838
      466.62054163
      267.11929777
      -361.51178649
      244.02848981
      9495.77042659
      8260.23030432
      -2273.07594384
      7346.26876154
      5268.51927494
      4097.87245444
      5676.73828564
      -1171.43578385
      4251.43777088
      3375.88209567
      -2642.98910720
      3252.01171135
      1605.63592133
      878.14343545
      3206.14860650
      -2313.97686006
      1130.63301512
      1582.77587065
      -4213.60484998
      738.87773211
      389.87943271
      -677.57939894
      -533.51557924
      -3557.63665005
      -453.34760244
      -609.68118687
      -1317.70118239
      -410.07417180
      -2303.73182469
      -1314.71657758
      -1772.34063357
      -3347.34862800
      -1838.68440607
      -2420.13659478
      -2313.61235651
      -2647.50019845
      -3900.37721096
      -2279.26813607
      -3685.08144611
      -4728.45886307
      -2957.49314394
      -3335.01586842
      -2187.94120515
      -2944.17787735
      -2863.40018821
      -2270.03160244
      -3180.08218371
      -2190.08440526
      -1798.66316684
      -2431.47403947
      -1313.84548189
      -1428.40973836
      -2128.27073056
      -695.07698323
      -105.72519774
      750.13113532
      1521.70155275
      -790.64704015
      1985.47727157
      2098.77171203
      1737.00908937
      1948.60100470
      255.11555581
      1376.84945551
      1207.40174984
      48.46456240
      4687.47845695
      7197.40118912
      -1275.31600867
      5731.77629777
      7611.86800919
      7000.95298396
      4451.35076036
      -368.87238677
      3512.58863053
      2975.57898785
      -113.24985687
      2348.18559021
      3223.86588846
      2955.64491755
      854.10699116
      -723.32095135
      647.15974482
      573.66484829