<?xml version="1.0"?>
<VTKFile type= "UnstructuredGrid"  version= "0.1"  byte_order= "BigEndian">
<UnstructuredGrid>
<Piece NumberOfPoints="5123" NumberOfCells="5123">
<PointData Scalars="Pressure" Vectors="Velocity">
<DataArray type="Float32" Name="Pressures" format="ascii">
      828.88328712
      -25315.65463536
      -31787.15132324
      -35561.77368429
      -25076.91863939
      -22990.51080897
      -20482.92742986
      33651.97634216
      26672.20007525
      -37979.07088609
      -20795.84884123
      -24929.46055353
      -30555.02465841
      16575.94507066
      -24289.64383439
      28687.80146318
      -28172.76905675
      32435.18247044
      24804.98384403
      -19896.22698744
      -20848.01339937
      36940.58731674
      -24986.97945061
      21327.13019035
      -17271.87882978
      13368.47195023
      17120.05595221
      -20257.12233466
      19468.86626047
      34371.09899348
      20227.32900067
      -12545.61849523
      11499.68326491
      17122.06099346
      13231.71216656
      5925.92494853
      6915.62544343
      18804.14417810
      3889.32660959
      10868.42013851
      6188.53831105
      4148.74531407
      738.45520136
      10025.92969547
      6715.57525458
      4280.18445931
      -285.48762002
      -174.01586463
      5681.23626653
      3824.27711733
      3628.35149132
      8220.48628270
      1305.82314875
      1863.61339929
      1630.60604648
      8914.70926850
      212.74427067
      -892.07646876
      -2169.77067343
      -81.68060276
      -382.19302832
      -131.80782243
      -1871.97274760
      -129.67670330
      760.81926672
      -435.80455508
      9796.52616046
      23839.26307212
      10717.32492382
      20799.68740550
      10324.65171519
      13367.81845114
      10317.27616566
      21655.93741752
      13186.18713559
      11867.21615854
      8499.94766708
      11632.73058445
      13892.40961495
      6531.28304689
      7764.92892590
      10402.41550286
      12399.81421253
      15993.25701217
      16367.61445019
      13489.63220536
      11201.74271168
      5103.72135243
      9698.75652154
      11558.73207826
      9160.74770346
      7810.89706575
      12997.07250810
      16042.06063677
      10147.44518292
      5707.64937228
      9244.44094023
      4341.25366585
      4311.56754887
      9545.87355361
      9009.45179094
      10099.19554040
      9537.75130082
      3777.39658057
      6930.08303734
      8361.81934593
      8128.83099568
      8335.14548094
      1247.84851833
      8239.64536119
      6515.51599883
      6698.60310887
      7868.20028344
      5866.77057613
      7215.85803805
      6090.46976109
      11870.88118252
      3139.67379579
      4707.02780552
      7543.81681594
      6717.90582876
      -3246.82684106
      8113.37730017
      5045.23862984
      8060.39730601
      75.07635314
      737.47059431
      1735.91746414
      -900.02939246
      1226.59492787
      1585.50956514
      -21.35241821
      1327.73146406
      14453.63614968
      50722.94191205
      11096.07551322
      19668.68292050
      11950.88867557
      16279.93162902
      18478.31326457
      10095.74313879
      13644.84577254
      20798.09806847
      12319.47901279
      10806.20855360
      11801.66983470
      25212.91080224
      18992.68574510
      15012.89458729
      13396.19780536
      20224.36044684
      23685.19812124
      14427.48270889
      15063.09708519
      18821.13145173
      16943.68443084
      16800.13107587
      12652.46975251
      9217.93915465
      10988.60637938
      15816.63171384
      17718.54875660
      12865.67849512
      7705.02789593
      19730.46053458
      11218.70088826
      6043.57118132
      11665.61778654
      13946.13991035
      8573.63788881
      18417.11559302
      8790.09517618
      8591.17678279
      9530.86471963
      13505.79838247
      2009.37815165
      5183.17684676
      8623.11266275
      7274.62349353
      10434.66882280
      5789.14821488
      8349.80134997
      8534.36927628
      8841.26631183
      6452.50369269
      9439.26517148
      7834.93890952
      8856.73706385
      6308.19845811
      3841.69670605
      3092.24927784
      1340.70354940
      2018.75100696
      1388.45906165
      688.43975370
      3817.46273123
      -2344.24356156
      -425.97965546
      616.60205962
      28957.06295734
      21814.38313004
      52652.01864657
      24002.60512979
      14725.87473454
      15491.97913561
      13901.31452720
      19594.30080108
      2358.62571026
      22031.69944158
      39947.43073885
      14193.31360872
      23937.51238482
      15195.82076784
      9633.72783215
      19778.38825875
      13612.57352517
      16572.93815219
      11677.76252463
      7176.13638277
      13274.57530364
      20983.26902923
      11298.76156628
      18942.19664286
      14086.72723945
      21363.50478523
      12576.22972136
      9350.35252889
      11558.35732722
      12496.42144929
      30533.07427344
      8618.36947296
      5367.33227892
      12794.52292925
      16137.97987991
      19771.19582283
      8820.18492729
      7861.50967261
      16519.38456963
      17975.84539166
      8123.52427316
      4700.74321107
      13060.76215412
      11421.20016590
      8779.98305544
      7906.31704124
      5743.11011622
      5011.70331686
      10017.51331438
      2537.08001718
      6330.60170142
      7659.99155109
      11446.68330151
      11175.96445196
      8255.31515687
      6447.36952636
      4224.16251963
      3505.13256196
      6363.27365702
      245.49287926
      -1464.29573910
      727.80576928
      1565.68966347
      1474.48285951
      -1022.57222602
      13978.12951776
      27525.89676984
      49077.70482989
      44049.49928133
      28629.53150500
      12341.52328978
      37971.54557385
      57138.59163351
      7504.94589733
      26973.15646228
      14304.75165830
      12658.25759317
      14942.06247871
      12554.88094780
      21342.77650451
      11964.00614416
      11719.33077561
      9856.69924193
      12130.82583938
      15998.56797316
      13867.74695497
      2762.22345793
      11227.79324640
      14010.15520248
      17167.39731621
      24390.35529446
      13008.49275811
      11608.16125816
      16110.63146731
      16533.42621197
      8229.04445682
      8303.40707469
      18260.46443766
      16164.55248280
      12675.32354489
      14713.13280846
      21709.45592013
      18140.60940659
      9073.70747888
      7399.18192851
      16363.20571069
      13898.96040851
      12367.23939060
      9137.98658881
      16132.36270781
      15732.07883144
      9149.67548145
      7758.98881718
      6672.88979828
      7885.21741279
      4514.88454274
      5660.30537879
      1654.91924043
      9857.55492052
      7682.87726887
      6286.43774205
      7835.25869382
      2337.04464198
      1504.88480584
      2349.61392628
      4738.17662144
      741.46433189
      -269.36779094
      2145.72220574
      1864.24298061
      -308.16060545
      -17305.06999468
      14458.51376196
      7859.41681402
      7023.81827415
      35167.68216352
      13887.71876068
      -5132.06917726
      38740.06788504
      11218.24039737
      51628.41941042
      16269.98963674
      13101.73382346
      2037.53857345
      15946.11389526
      13623.19987291
      21123.82177264
      16884.04453543
      10477.97031957
      11922.48195657
      30082.36645548
      17130.38990522
      -665.72351995
      14690.76548687
      17095.97887436
      21693.89233881
      10992.28910908
      14876.95403778
      12602.14829205
      15953.30282863
      19890.69171804
      9057.64331523
      9618.55133988
      11838.61510350
      11970.00332367
      20820.39235833
      19077.88768197
      7099.95152392
      15021.41348918
      15158.61766219
      11886.42288495
      13639.86026645
      9529.85336856
      14459.28616087
      14479.66981909
      15124.91494405
      8711.56997977
      12944.51981812
      8774.67527728
      11801.09851372
      5382.46154983
      10533.60151602
      8780.42992752
      6420.28412834
      6508.58736397
      3765.67170887
      8732.25611108
      7663.79884915
      -1639.20152448
      4933.29667067
      2971.09629851
      985.17742870
      3040.15823724
      -39.38683628
      1162.00261095
      581.21861451
      443.44535055
      -28807.02041058
      9530.94813103
      23239.06067326
      19157.57986744
      28817.94470566
      17839.05839213
      4469.69817244
      5277.47539967
      6215.84085476
      10228.36673839
      12162.28949616
      16260.14697080
      20407.21341553
      7643.42958037
      15383.95223442
      13824.13682327
      12439.42828785
      13027.19552727
      8893.26903800
      20894.57461689
      19015.68494210
      16158.64534478
      6751.79647715
      8480.42807636
      10971.65337726
      15705.26016179
      14021.83379097
      14206.27491527
      13561.15755641
      5608.14892292
      20764.42959216
      16019.63455010
      11810.82675255
      9313.50198220
      11551.82354472
      18332.48461979
      20209.50169718
      9446.45871429
      9243.10932205
      17561.87796999
      16611.75446062
      15286.91841517
      11124.49955409
      13923.26360809
      12103.51274265
      14350.72951977
      12072.41163162
      14285.60217446
      12734.68727240
      6592.27800724
      7568.66320213
      12072.21729252
      3902.70300796
      7989.67677737
      4908.00960535
      9988.21391540
      4477.82158823
      -3498.49881653
      10760.05182244
      9431.79398553
      11464.00354244
      5721.95639938
      2088.98730971
      451.36150920
      1343.21079945
      66.86094858
      12821.70077080
      20165.26681631
      19787.17067167
      6503.50397547
      2277.54338289
      1181.04065210
      4084.64034914
      13638.59815813
      12510.84206681
      22025.24675700
      18906.34056016
      9193.84017479
      8343.60381855
      5720.60173706
      6473.29173409
      10491.74042133
      19560.13330464
      10467.37323281
      4520.99708943
      13351.98806251
      13807.97603989
      15254.49961484
      22142.17511694
      14995.03942995
      692.36987724
      6567.00241009
      10024.26878823
      18447.13731470
      8880.38870703
      2617.91527364
      15109.42875853
      22209.61630908
      14475.31052958
      15876.08128277
      10661.42762222
      8339.14925941
      14881.72084195
      17542.00926408
      9859.02650581
      6282.43709942
      11065.28084214
      19298.94595935
      13276.69253082
      9835.07706289
      12925.22039249
      20099.69490333
      8474.74043127
      5859.91096374
      8663.99342381
      11480.11724055
      12369.15478425
      9066.65430397
      8738.72359845
      7218.49491632
      4359.89222705
      8089.10855949
      12851.57324712
      -2674.35513802
      3221.31865749
      14487.95680154
      7349.14190688
      9830.71311355
      1399.54005867
      1577.29002257
      -331.35071292
      -405.41659696
      -18063.76538625
      31772.89466347
      14869.59186395
      14682.87000781
      14113.30621179
      26710.88025170
      25850.27796518
      13971.88907825
      24519.25419009
      11826.27667388
      12118.25232091
      18095.96251405
      29904.33063410
      2913.63724690
      11122.63282439
      16719.45622435
      39561.47551876
      7360.99245936
      18081.70598843
      13255.16717824
      9200.09810751
      22327.94451017
      20760.97230873
      16869.68149837
      -1239.31770144
      10660.40430572
      14692.96031802
      16789.43437037
      15327.37935765
      9688.19859530
      2305.94093185
      12724.01645846
      15724.00678264
      12534.82890865
      14850.20727374
      9952.89868899
      11214.45936270
      11371.58264668
      16672.50591532
      8465.29344536
      9066.28006583
      20130.37780924
      13571.72270291
      11727.65705574
      14257.12661947
      16485.32197752
      14311.80782429
      5702.74271672
      5974.18994591
      8096.73755822
      7996.92210033
      11928.38271782
      8418.82906866
      9507.65731330
      8247.38205004
      6596.44097480
      7689.14382993
      3149.92958973
      -616.49937697
      3467.68177238
      669.83935797
      8312.65229492
      -138.31417803
      1042.47759573
      -1237.26005996
      -872.01200952
      -35532.71009678
      -17835.31066434
      28885.35111685
      34698.95843147
      9926.88080181
      13683.76227681
      18895.74341567
      26075.81829663
      25400.08544151
      15368.39608055
      9857.49651942
      17897.45214798
      25340.14656399
      -2298.09183444
      18234.20448454
      14299.18272004
      22045.54123681
      11762.81851324
      8390.85687238
      1881.43026205
      11216.46784543
      20262.72798096
      15696.70117885
      12343.98225668
      12944.27852367
      8430.80683331
      15345.93999877
      12587.21078456
      12524.62341865
      12017.30366381
      7993.64018152
      7425.63315542
      15202.54676938
      13263.38177925
      13971.50224422
      14922.88852325
      14777.49164224
      18260.62427176
      16692.49953936
      14733.80521874
      10127.79586072
      13659.50865837
      17538.09211163
      4662.66517067
      9195.26888305
      17521.54124809
      11805.91262986
      6741.83298677
      9429.53044742
      15566.21784540
      10161.97190579
      7387.97195809
      7882.02880091
      8149.23999850
      5499.08202828
      7478.93473162
      7464.21209993
      -1628.97097628
      5972.23615162
      4450.31708799
      -3108.19250815
      778.15714954
      792.91506475
      2149.80393206
      -1325.34698766
      -246.08774339
      -32327.05726218
      39225.54582801
      11467.16378554
      13488.89509633
      9780.15439273
      12937.88259639
      23340.99536984
      21350.54583710
      18004.81335849
      7678.27826520
      8585.30037369
      33521.47115123
      9172.88879649
      -4092.33892644
      13071.41983085
      23904.84593101
      15930.22251980
      11578.64377160
      2326.83268075
      15373.35659501
      16949.55915992
      14814.80006214
      11598.72423883
      14262.56316787
      8870.91743698
      12735.81000993
      4915.03872993
      14011.52759261
      15805.59072003
      17231.78837008
      12348.51088701
      -308.84041199
      7738.23422619
      20637.27423290
      14992.95998920
      6875.65874248
      10616.46254746
      13041.60459539
      16173.29273330
      12779.50992513
      15478.15923325
      16363.23575127
      13328.19572125
      10901.46509931
      6540.89779486
      8817.16102658
      8792.73051069
      12280.30142670
      10974.60720027
      10034.59603949
      7989.54674285
      5718.03133704
      8605.52364725
      9297.94809470
      4134.74032789
      2992.55344307
      8180.15640794
      4717.88965832
      924.95882079
      2228.37034782
      1950.08155113
      840.38327421
      578.34434759
      -167.98976511
      1670.74776948
      -465.71392467
      41505.62047207
      15393.99034007
      17715.88685850
      32389.87329186
      12519.74771208
      14269.34765164
      33324.11835258
      31625.61894095
      19736.98747702
      13749.85138505
      9096.31794546
      17399.62217040
      27659.35440119
      10176.93726943
      4209.61742660
      29289.82779097
      16177.41036247
      17532.98934826
      12672.10942400
      8573.08265755
      3704.34840714
      16241.47435178
      15103.87059605
      17631.03160659
      11336.31391313
      8249.39812373
      14067.17001153
      8758.25362787
      9758.97500521
      23209.49635715
      18234.51046366
      13668.22433841
      11067.69122549
      17602.33708689
      17841.70547062
      10939.94585551
      11168.80510481
      11782.57133608
      21052.07316440
      16332.58725633
      9743.57988936
      4643.21595301
      16138.96168134
      14578.44334872
      4889.35288124
      14418.79731705
      21235.68361952
      7496.22405076
      3744.42965276
      2212.53113640
      10670.79938718
      10107.71652053
      6226.97991682
      7624.35315457
      4723.56268366
      3845.31388117
      7267.49339605
      4231.68626496
      3276.05063451
      5231.23983516
      -3477.73033202
      122.98025523
      4517.76689252
      2986.89836818
      -1778.03072477
      885.63571197
      1234.16484125
      29704.02269827
      26029.60046757
      13827.20040946
      19812.48273087
      14404.99248759
      17755.43001638
      18911.26307729
      5921.10525363
      21937.70117456
      15958.71950633
      18387.03853164
      13744.71529945
      6972.62187544
      11704.90840783
      12007.70765439
      16829.36608727
      19623.54415852
      12663.42958317
      10205.21899912
      9893.51180619
      21292.24523503
      17072.98260987
      10203.46671749
      18014.18892193
      13687.00250136
      5581.77610846
      9770.14987734
      6382.57750597
      13159.66867639
      11928.49994289
      11162.61956927
      12651.76758323
      13361.99834100
      16075.70990541
      14904.04737234
      10371.26825039
      13554.28375434
      16938.06248763
      18902.09739939
      6243.63117425
      14180.89829792
      14494.62236891
      15214.34596590
      10823.37250604
      8770.39973958
      9630.81972758
      11707.13761589
      7836.23753468
      5826.47167670
      5229.81528919
      8407.91934148
      8944.92799915
      5899.32421298
      2872.90820246
      6888.64348916
      7565.57085472
      4848.24244657
      2101.59218438
      5571.24021868
      653.64837234
      -470.68036483
      -1070.94136936
      4661.94266875
      -1855.87611395
      1986.16859665
      -23124.99208087
      8053.59745470
      18233.84399022
      22164.00016473
      26962.53767286
      19600.15233394
      7818.55118613
      22851.87008358
      15845.71353908
      656.13323251
      25172.32469574
      25091.19447889
      17530.31240238
      12889.15161438
      10272.22632131
      17647.84800507
      15399.60114240
      15297.92835076
      10577.26005422
      17387.18143103
      13261.26982687
      8808.60727594
      18487.99839450
      14127.27186617
      23570.57665761
      13785.02412615
      11623.80175822
      14599.21334583
      19388.47064522
      11364.53960787
      8763.86079325
      16482.57468191
      5692.43153202
      8711.93888939
      18498.11606005
      18856.60826394
      11372.50134167
      14230.93966330
      6872.99227371
      13741.61150328
      14140.48673818
      6693.64094004
      10328.57340376
      25476.74207289
      10074.56594180
      4075.86115874
      16693.87724852
      13588.11064824
      7317.00041973
      11489.20346636
      13942.03403500
      7133.59237683
      4342.15275057
      8461.79433303
      6897.35647318
      3638.74874843
      4514.57545553
      5723.67041891
      1055.86479359
      6090.51686920
      -5.91589867
      2841.05589257
      9078.09122216
      3378.91023514
      -1105.90256744
      4190.41269756
      30741.74643282
      43233.11816418
      7470.86871155
      15716.08307408
      33547.68448165
      17594.73225853
      18211.51105712
      26612.10610026
      11834.15836484
      18881.11986796
      3343.00386925
      14679.60958795
      10930.40946092
      11133.14720804
      14954.42214920
      19051.24923430
      17994.45698326
      23135.53025698
      22951.09590813
      18694.98093793
      16416.45889516
      12162.65814063
      10343.31547468
      18746.58886948
      23962.31648853
      16976.90375655
      9156.75487855
      19874.21998983
      14820.24773847
      13999.07046863
      16551.61346584
      17923.11812743
      10480.50927266
      6249.65652222
      12461.31823251
      15779.97955313
      11156.27652925
      1238.38321849
      11421.10565107
      24470.18598102
      8970.12335785
      6611.27319261
      13820.89849463
      15704.67362126
      8164.92800821
      8108.59345466
      11772.28623745
      17260.98661972
      12192.38921766
      3045.98938658
      8092.93112842
      8031.85795778
      3608.15778275
      10182.89325475
      4197.13560294
      6788.97985977
      5111.54792312
      4031.23294082
      867.44751327
      2316.69555640
      1603.78826128
      28.20069924
      1762.53971435
      -1244.54127466
      1251.38161448
      3493.71258375
      -15669.46518721
      10009.99272944
      15971.65463538
      4542.69341370
      16680.08762245
      6520.26367299
      23920.97184928
      9972.30413016
      2440.34840483
      9821.87982437
      16529.02421291
      24321.25857140
      20594.33708887
      11314.20752003
      10969.77555012
      13017.46395835
      14206.70060846
      12669.33075554
      16387.30613204
      10738.08445431
      19385.71679537
      11874.04642271
      19547.28766684
      16520.63298492
      7407.34355865
      10745.85670088
      13040.07281574
      17569.42336191
      16365.85294158
      16149.62134268
      18942.65515214
      13036.72250772
      10662.52587171
      11791.52850625
      16676.50835598
      15167.98558277
      15402.42644492
      8314.23725572
      14379.13558144
      14409.62433838
      12970.86581201
      6605.33845572
      11192.11570280
      12542.10786517
      13467.26717606
      10325.00811366
      8434.53156898
      9530.07102244
      9224.48655402
      3471.64210049
      6695.90369420
      15197.20677414
      5696.39016186
      3404.57938380
      5724.02634449
      4243.68897468
      4811.43637263
      4426.67351953
      6401.92116782
      2187.82978144
      4641.24251736
      4062.06670421
      2418.96252813
      3387.16032815
      1269.78438681
      1850.81205021
      28533.18657438
      11969.62949927
      18531.25627508
      20863.32975004
      64378.84841424
      35804.16812607
      7185.88201815
      20107.05152567
      19025.80768946
      7612.77122921
      16931.40861596
      17441.68895072
      18128.94052070
      40875.74354291
      15005.57590054
      24021.90545048
      31406.23854038
      27237.39333839
      17084.64973378
      10945.02041483
      13336.07158603
      21049.09553145
      11783.04418567
      9070.88713149
      13657.55221434
      15354.85339111
      25833.89256645
      9872.34897314
      15749.03318611
      15610.63464518
      8028.68773168
      13865.63708303
      17414.48906138
      9302.10476219
      20177.26569437
      14371.70555064
      17762.87224655
      3492.07131500
      12391.14391877
      11127.86129933
      19594.38943638
      9486.62743887
      9202.13848992
      8192.14513058
      8161.74136267
      5502.47092866
      6991.20036085
      9478.49204659
      14844.98916580
      8028.09623783
      2497.96720678
      8741.32400626
      6261.22108584
      4360.82451174
      4324.02149485
      4931.72190945
      2581.60783027
      6449.64089616
      7167.39015526
      1354.44077635
      5534.09131296
      4586.68334965
      3536.32154594
      -375.83502451
      -642.80356064
      -1586.24379307
      21794.58607430
      12923.86904609
      -1866.34676829
      27334.67973102
      -4776.11286622
      21568.44059002
      17176.08882418
      12473.50647835
      23847.21913457
      12973.07639956
      14893.64214283
      5376.71854040
      27401.00303870
      15389.81015876
      13910.61358113
      7001.20054209
      16855.44612963
      25067.96678767
      17936.54154934
      28677.69031319
      22047.45633861
      3059.62583117
      14912.24184522
      6784.97166329
      13899.83940251
      16228.19920396
      21095.69707885
      19185.03302185
      4315.81979042
      20123.14150848
      15570.33449006
      9144.32028487
      10427.66250855
      6788.92675631
      15556.76403291
      17743.96776754
      10180.17770241
      14101.20998918
      12128.72888838
      8974.70335103
      17602.36864928
      11166.18110185
      8836.67380805
      13892.80179176
      5111.80792604
      10143.75301210
      13858.48573294
      -868.77781131
      4933.85827046
      6459.46885452
      6258.04229481
      10252.02720223
      8440.10410601
      4685.58440973
      2200.56143891
      2986.01446051
      3872.81730959
      2859.65461266
      5769.79546030
      4904.47827041
      -553.06704330
      3291.23746501
      3907.01725190
      3076.14460368
      -659.34726802
      2008.07793165
      -15714.90616637
      10371.62601821
      8079.91255046
      14719.68308760
      6879.54943234
      10229.88377407
      9452.18366809
      -369.22667195
      15416.06769546
      11802.44740585
      22149.63553210
      14306.46194839
      11642.93995047
      19659.16058836
      17934.03479820
      9857.75733957
      -3795.85898956
      4391.31054586
      19864.49679398
      18245.80960152
      23355.08455766
      20887.27001959
      2473.82427283
      12613.71322447
      10773.94615173
      14788.97582758
      13169.98982954
      6170.82753569
      3282.03625982
      16964.65709423
      19813.38615954
      16458.16802873
      17123.51671086
      14556.67443573
      3564.51000452
      3163.04834731
      18690.98705047
      20409.91450771
      7271.19608537
      2475.54614163
      13804.10072159
      20046.15718942
      4319.06417113
      7763.04631933
      5904.82030872
      6409.25271106
      5467.70158782
      7404.63809477
      9405.07123989
      10328.03838324
      5787.88207660
      1905.69337170
      8576.93225516
      9769.68179226
      4933.12772063
      4351.69362252
      3130.98448134
      1012.46945900
      4576.04778704
      4110.27426476
      2458.04197865
      4397.67388554
      2601.11501297
      -1790.02002585
      47.87627935
      1518.78214501
      10080.28298936
      8375.34435211
      17093.18928700
      24559.52349318
      16345.00783084
      30234.32724445
      17267.17954257
      16894.71279721
      38449.00244098
      8628.66060887
      13514.42103638
      -4322.39463366
      5277.34861403
      10840.05691252
      16164.28229992
      16276.10673882
      12516.70653435
      5669.33768330
      3377.49295528
      13665.86099010
      5520.58027714
      21952.17992863
      18771.61121532
      3657.76837221
      20201.03298492
      14776.48529446
      18315.10030689
      9664.65888144
      14968.86583514
      17940.99636288
      18769.50946203
      8470.67936610
      18554.04680378
      7747.34453884
      8017.00560395
      11359.74297549
      10997.26118200
      13536.22867678
      12132.00257660
      5162.94323795
      2684.84404700
      11215.84709304
      18837.86511978
      7192.42388786
      5283.75249918
      11732.80493495
      13919.43391924
      11473.08426017
      4453.03685943
      9257.15157618
      8960.64623420
      5566.62715727
      5186.01436219
      9335.46929210
      6151.94545542
      3008.31511934
      4712.48429593
      3015.98714633
      3370.90053307
      829.51952844
      777.39271179
      2984.81952846
      2671.14780585
      336.57695547
      1505.12637758
      959.33696652
      24294.13813823
      20133.68961596
      12056.41228239
      -2156.40057640
      12092.53976052
      9487.00565279
      2216.99146522
      5172.59861416
      37671.05403394
      2684.74755232
      -6395.32423078
      14089.43036191
      8436.75366569
      8767.18564406
      11953.84563118
      12935.53791647
      1122.38400843
      12995.76878264
      9944.63792688
      16765.26870643
      8375.94171604
      5679.65063452
      10314.44476125
      19632.74857907
      8315.68934726
      14081.05463540
      14478.73656803
      14903.28508605
      12583.77968279
      14844.70630957
      10413.14459175
      8837.16986839
      10332.26995149
      14509.67351341
      19652.38601395
      14121.25305627
      10315.18985373
      11620.93887834
      13693.92839487
      11032.20416027
      11865.48461415
      7260.00490593
      4283.38675151
      12285.65842302
      10433.50201344
      489.35242251
      3910.69323513
      10328.93549931
      4145.23320560
      8999.23448075
      13551.23143725
      7514.04833214
      960.99999471
      10191.06822864
      5665.30956819
      3840.92356077
      4032.73426929
      4338.53572911
      1191.64221910
      2154.69969370
      134.64597683
      786.58361593
      1738.98002240
      1732.66678049
      -495.63746748
      -259.17472860
      -19965.59071168
      24354.76847720
      13960.18833102
      12987.16713063
      1419.60943162
      5417.27462297
      26528.62109049
      8414.32967391
      4766.44085041
      29089.91283131
      6314.68039758
      8759.05335440
      14890.84518619
      4888.36629057
      14633.42667915
      15736.18125628
      18669.95108354
      7438.92638190
      4020.06390622
      5774.22790953
      7199.55348820
      6097.52685673
      11389.95348823
      18311.50717297
      12310.39075490
      13831.23933917
      13980.24691017
      13158.03175221
      8789.25331489
      10341.38124492
      20721.09953454
      7207.79841039
      8447.04112562
      9602.86199364
      15283.32038605
      9755.41243003
      7723.32660695
      13447.18594434
      7643.43937328
      17376.31229242
      11247.41725411
      4936.32681964
      7550.97744253
      12952.97882253
      1916.96061696
      4169.28205744
      12369.02161518
      11562.96681876
      8248.90132942
      9431.31116460
      9001.30173553
      11657.03940195
      4156.79946575
      3536.25641335
      4445.22876084
      2270.27013749
      1509.48126441
      5400.53270322
      247.01512901
      4683.86019370