<?xml version="1.0"?>
<VTKFile type= "UnstructuredGrid"  version= "0.1"  byte_order= "BigEndian">
<UnstructuredGrid>
<Piece NumberOfPoints="5123" NumberOfCells="5123">
<PointData Scalars="Pressure" Vectors="Velocity">
<DataArray type="Float32" Name="Pressures" format="ascii">
      22929.32713144
      -28190.73497036
      -36859.87842974
      -35561.77368429
      -25076.91863939
      -27678.82378898
      -20482.92742986
      46011.99546578
      37461.32870390
      -37979.07088609
      -22549.67551692
      -24929.46055353
      -32170.60337349
      45227.17261410
      -24289.64383439
      8899.73281915
      -33439.63159408
      54244.19046845
      30138.35174157
      -27369.66517508
      28812.50182673
      25288.08819361
      47480.47507133
      12509.71463940
      -15498.98129147
      8745.14553847
      36896.59543556
      -22804.36392507
      15777.04833834
      35929.05688524
      24684.07763205
      12203.28165095
      27942.53549769
      16698.46135544
      29131.12000164
      4567.32749714
      10980.56178623
      9069.46116475
      14275.95432839
      1610.15310277
      15593.35669772
      7882.41661266
      7529.00120994
      10002.47025362
      1536.33130923
      -3973.37806416
      -1191.12408572
      6366.92242132
      6271.38418785
      4301.52717327
      3923.81313147
      4178.90255145
      4967.54163993
      727.90124587
      2833.23416748
      -1374.29984131
      3697.12930128
      2127.90844265
      336.84126851
      -239.69339848
      -978.56066045
      383.76851818
      724.24655432
      428.20197150
      2006.38989468
      1434.68373663
      12292.40200813
      34513.11420889
      16452.73075482
      22274.63382573
      2454.98912582
      21484.14177408
      15911.89135066
      30677.29390717
      15708.65633055
      8933.95073409
      12984.83207477
      16712.76875441
      11963.68391909
      10290.12656653
      12128.89123846
      17321.91163727
      19706.09731300
      9165.03875259
      23809.89332845
      11199.19322284
      18800.05309009
      -2121.52540057
      12817.10993376
      14608.57316797
      10062.10353083
      11224.50049116
      14156.20196199
      11337.60718092
      10599.58858155
      -731.48151790
      9109.76298452
      7787.84615876
      8756.65022455
      8014.22234155
      12095.10513952
      15730.45640212
      6881.76951018
      8030.78052454
      7182.01854150
      11210.46061434
      10762.01960366
      7773.86657075
      1975.51705614
      6394.06748456
      7796.94684605
      6452.34482626
      12675.42524935
      9116.20222031
      4536.37000404
      7044.80036334
      4706.29945963
      693.12325784
      9235.43666063
      6440.73195738
      1693.63437571
      3090.76745414
      3830.51088462
      5406.52063781
      2966.28116067
      4594.88391706
      1447.99815167
      4480.80447200
      5656.16748326
      2945.36808756
      -4158.44425370
      802.83490692
      4528.72845296
      11147.17683652
      66602.95095893
      29608.30468822
      6898.46904511
      18638.38202225
      24540.61736673
      8236.30208708
      16034.24336271
      31517.64310941
      19971.01396401
      4548.85039853
      16944.54002229
      17692.07971910
      20874.80819408
      21004.93084262
      9535.79353568
      8989.12144765
      33631.85037766
      15620.53712435
      13397.31116839
      9243.71008337
      18794.76967306
      22327.93755722
      16139.45328755
      21312.35874746
      8957.51424731
      11455.46114247
      16127.92598196
      9150.77084614
      11282.40651535
      16509.05261915
      18316.81055377
      5533.91991299
      9090.32664777
      26177.35239804
      16444.93088401
      3326.24973922
      10959.74883568
      19979.55150133
      15091.07014187
      9886.85316166
      8836.63431968
      13246.56372048
      7206.02323559
      6025.77543489
      10553.12568851
      10594.72784464
      3172.73682505
      13888.59160608
      12459.09485079
      5292.45340545
      5901.73952954
      6899.73149110
      1977.07846163
      6924.23270966
      1924.29911549
      1166.97576448
      4072.88763734
      6195.09059771
      -16.77258721
      2740.50500860
      2552.32968357
      -347.42788478
      967.09587024
      2097.24915635
      6478.96303819
      14915.54113934
      29169.77549157
      58142.43473998
      17359.97595649
      53562.95167348
      17395.58575568
      14863.70660005
      20439.79324522
      9890.68701006
      41867.70281118
      32285.09558501
      9981.50846461
      6833.51267991
      2679.00943160
      13778.03292396
      28876.12635683
      16890.13320913
      13983.29857018
      18687.30781357
      21412.29297128
      10208.45477030
      10761.81714563
      15673.16737599
      29908.97635120
      38268.50686499
      7898.19941573
      12249.47394083
      17956.50772547
      15050.66336842
      12455.13172249
      5933.45000719
      13796.80813364
      12827.64137556
      5090.18680788
      5197.06801391
      9192.93649194
      22188.21273788
      8061.75440691
      9344.33516724
      10757.41291320
      14644.62179096
      6263.37299130
      9682.08998109
      10562.01350760
      9168.99998300
      5088.73309573
      6153.53292228
      11496.91015088
      6733.94589715
      5619.35994896
      7324.29112507
      4191.65279874
      4552.06713399
      3735.64699186
      6970.83124711
      3518.97781275
      1473.11027313
      3568.56812797
      2718.05662197
      3049.58575425
      2948.29769168
      -389.70634485
      -1297.12645154
      517.07310029
      -800.62805831
      17134.07411942
      18192.20476881
      32503.92101949
      26411.62180689
      26798.15455307
      7025.89205096
      17354.85080483
      50482.01312644
      31494.78559929
      30453.50865625
      11804.19737489
      24395.51899227
      13188.45945797
      23217.08631825
      11620.92559776
      10442.22380117
      11004.89742782
      14140.02779255
      15600.24241544
      18258.40634073
      14753.01571200
      16753.05761835
      26480.04905077
      11886.79115285
      17148.60595346
      31336.86062395
      20205.89924809
      8410.18020169
      18601.50553420
      17457.72478759
      20090.80648313
      18949.14555694
      6442.40740702
      10258.08581917
      17482.31460710
      10256.94900485
      24210.04849386
      20408.50366926
      8701.84395442
      13161.03729477
      11845.99114904
      11217.69875761
      16740.34370427
      6555.43056515
      12057.77253592
      18750.61876926
      6198.09683670
      4288.63356488
      11360.77955726
      7969.44606516
      4895.22995728
      6055.33277136
      7471.89860288
      9202.93675931
      991.66511083
      7986.53739125
      6681.38031796
      882.90970596
      6437.13187639
      3835.76944440
      1756.64812442
      4956.40158981
      3261.11048382
      1921.23443695
      2486.44485415
      965.66362926
      -17305.06999468
      12649.99057470
      17082.64033510
      42151.46044866
      8902.94594461
      6711.60089625
      8070.02522992
      23130.31495646
      19769.13198612
      32933.19431562
      7634.05456135
      23763.29506457
      12847.12591306
      11394.30815438
      19874.57592863
      16053.13973416
      20171.01015297
      2775.86963272
      10167.95740954
      22803.80477147
      18333.73457651
      17126.85575436
      15665.73867291
      32171.32971187
      8672.00939152
      19225.07882852
      26752.27207543
      24785.40921316
      22833.44104080
      14047.29300642
      21058.98821569
      23885.71820513
      17604.95251893
      7205.69920146
      14000.65305750
      24304.39768074
      10106.30856769
      6513.20195138
      16661.07952869
      20191.65301550
      8561.54619880
      6998.41462733
      13995.65057368
      18001.95206609
      10396.37556878
      10132.77115278
      10061.24953342
      11761.50087662
      8223.94713046
      6922.90726221
      11482.12115322
      6973.05991429
      7114.00845304
      10793.17425455
      4958.16385265
      4724.17668437
      3461.43457339
      1756.96739600
      4528.22850411
      5785.80913921
      -535.33413612
      2102.61962381
      1251.73721451
      1345.54371709
      991.93847061
      -707.18325875
      -21885.61036780
      17066.79216084
      26447.81687105
      20415.51746270
      46692.91212748
      20752.64491090
      11049.90971657
      13050.47263543
      17140.77483615
      18616.76165177
      6648.09812465
      13492.83115367
      30743.52955699
      25700.98995814
      10281.87449778
      14414.16248421
      17702.94864984
      15800.36254942
      24614.09897501
      11571.67038680
      12992.88954577
      13315.41098419
      27655.46813372
      23334.46854749
      11453.40563201
      4853.81312687
      19578.80547861
      22511.15830653
      24469.56106107
      14165.66959933
      18211.85910563
      26839.04436605
      22814.51744037
      9827.10935093
      12579.26159270
      20722.19076800
      18956.73916212
      13484.44541921
      10308.60313341
      14070.54062014
      20523.39192153
      7140.33926296
      8643.17157039
      12393.58690499
      12137.04414361
      11432.19662769
      10125.19315841
      12217.91369307
      10757.68372761
      8899.05988582
      12613.76548225
      8334.22952703
      3096.23825845
      11378.95687689
      6974.80191162
      3283.79178132
      5835.47890550
      1027.11400958
      395.38072725
      2957.77200223
      3034.28631058
      2462.59885888
      1698.24601003
      1567.83180035
      2459.40594379
      -191.48543106
      5664.73157055
      4367.34774654
      20535.59407283
      9717.74324051
      -21.73766095
      659.81687593
      11485.04690899
      17835.96320400
      -622.39853227
      40298.94306796
      20925.22990321
      8536.44379826
      16666.80267504
      26462.78639380
      23647.27355406
      21973.30171129
      15632.68801254
      12971.21905859
      22928.86480627
      16987.63787894
      13614.74915760
      11409.62355772
      18529.77072130
      27564.91554424
      22044.24355286
      10087.29166724
      11494.33845313
      12046.52995256
      28493.27334612
      21154.35045720
      10266.42158768
      17216.10275472
      23580.18530251
      18644.56087929
      10885.17836114
      20761.86011109
      20741.27311451
      17244.81537446
      13695.51212346
      12571.10040281
      16059.05008719
      16737.55361534
      8471.11055758
      10582.70700431
      12058.59818952
      11669.38936931
      8117.28245988
      10625.32369284
      14750.84932941
      5832.03037166
      8121.92417105
      14805.31611173
      5487.16128385
      9038.59847722
      9977.39156638
      2178.55299144
      2037.36899710
      5637.36553183
      4114.99995016
      5644.01688718
      1764.53090362
      1394.92823248
      2261.03953962
      1549.29338088
      1235.96387064
      -483.40956652
      -28171.89223968
      21047.41626837
      15824.32285799
      25266.26700972
      18783.01363604
      11841.38755630
      21857.51531092
      22551.54712904
      43113.74119270
      9507.92091755
      14460.68363895
      40696.89310691
      25412.12301920
      5112.69032690
      8982.05931296
      22258.31780676
      29779.68462069
      17511.17018482
      7809.55144237
      21676.85991599
      7209.06332886
      11324.39709568
      15942.05974803
      22451.89543672
      18561.42899387
      13794.02908766
      10213.66963924
      15830.73031461
      37703.77726808
      22764.46062365
      7706.69516278
      6939.37712159
      26064.01357805
      24319.27670159
      9828.73456778
      16260.26858120
      16769.57459445
      15915.82758865
      16252.10196487
      11089.25341700
      18644.09616459
      13470.94091520
      1810.61176391
      14394.02414383
      18139.34529965
      11061.59431711
      9801.88330514
      11338.57018238
      10653.55524304
      6489.59878477
      5855.06851635
      9439.13882886
      8206.99810565
      6428.73237038
      8638.47896047
      5511.77270685
      3058.68538061
      5273.70703446
      5121.23435256
      242.32891066
      1113.75621195
      2499.32016793
      184.26293941
      12.47038892
      339.46213043
      -81.80185662
      -35200.13978798
      63610.07609523
      59104.81738949
      22550.85500806
      46449.02874065
      20110.55698084
      18596.78284544
      21354.19211072
      37833.22169022
      10844.70071604
      10909.86775123
      40809.52698591
      24755.63015965
      12327.50902631
      17780.71333726
      23526.46005551
      17212.60744259
      10235.17775231
      23357.87705462
      24744.46094742
      19372.09467751
      5459.85803548
      19685.00233834
      21452.24830280
      16210.63999687
      18597.62752849
      13131.57708454
      13227.43848535
      15626.89767138
      22738.25170494
      19900.37354571
      11353.11268624
      19592.28864633
      20789.14837139
      18553.84043249
      8587.97490498
      16172.87179847
      20251.03116472
      17327.90766589
      12890.28223786
      8851.59030055
      21485.71489752
      16108.05185950
      10890.80791631
      13218.79811887
      19921.71877170
      6685.59147931
      9209.87936692
      14503.05159256
      7011.52192638
      7824.47833939
      10106.35609552
      9264.32794058
      7872.86253503
      5364.24705421
      6337.30028800
      6439.87203379
      1326.39894334
      3231.63443346
      2795.94935553
      3523.96496349
      3803.63949620
      3626.27973962
      2910.40702733
      -1688.95242329
      2085.73711842
      -32327.05726218
      43453.00699219
      7643.96601395
      26269.07621114
      13601.74419104
      17940.34277802
      26768.41320391
      23108.63211268
      18062.71435361
      10197.48396151
      11658.83375054
      20730.18631445
      31940.71190953
      20250.57176644
      13366.33028725
      13623.96604130
      19614.68446318
      10577.37494533
      13019.50521787
      22312.70078791
      16177.65767878
      10220.19992470
      12687.76220291
      10465.72549861
      17744.29806386
      22489.37935993
      6903.70782136
      11050.02271536
      21772.94538897
      16140.99293759
      18100.10961057
      17973.12849740
      22472.44043771
      18859.21101632
      17796.97254357
      17941.25050367
      12463.13076327
      17662.04911159
      24466.39622910
      11136.72388210
      10889.77149868
      16446.18777382
      8387.51276149
      10221.96658014
      11094.75075443
      15326.71234703
      10100.16902588
      9330.30187352
      12381.87917451
      9011.76546726
      6866.66008361
      10902.37577697
      10173.00026575
      5840.02689389
      2922.42134215
      2745.38646719
      5647.87401143
      5071.42328332
      3698.47900913
      1260.41800972
      3476.39541610
      864.82624089
      2618.42806286
      -1359.74845617
      453.04626588
      -1959.12516208
      25173.69763234
      25208.34242614
      35705.77820513
      33265.88639505
      22866.51508467
      13148.13326099
      29190.15602251
      25783.57762491
      21195.09132876
      14540.62917148
      7001.28671256
      23626.01030925
      21267.73200666
      15487.76447558
      22128.85382245
      22037.28014581
      14692.44726602
      18488.24883561
      19920.97786019
      17270.86579743
      15225.72783615
      6297.24517564
      9982.01296495
      22111.08083336
      19130.85770675
      21465.56662978
      13165.47098839
      15904.66172168
      18703.57777191
      24117.93247311
      21916.61365511
      16435.98901755
      12616.07100518
      17848.96179913
      17125.37087354
      3581.66626288
      13371.21393997
      17535.67075604
      12894.51897176
      5002.95322121
      12378.65444975
      15917.93974543
      11775.77160956
      6981.46218345
      5780.13037013
      11662.66328923
      10596.15081415
      10473.65587611
      13921.73119474
      11347.32671650
      4427.78601005
      7334.49038944
      9671.82725305
      5456.95895011
      7609.61666331
      7580.63220641
      2736.45957229
      4698.69953863
      3334.29543707
      1856.74890344
      1492.19132709
      5781.91060817
      68.27102320
      -857.00679524
      -935.47810896
      -2353.22019510
      8933.39894144
      52094.47625185
      11934.53618873
      12557.80491469
      18630.95443568
      23025.76924184
      27144.21103422
      18741.79108728
      15475.67395684
      13941.40174631
      15486.68029235
      21986.76286801
      13927.81738781
      5309.69397159
      21756.39735869
      17883.41210939
      16643.94148672
      7782.92711101
      20849.83420152
      20594.45634596
      23803.41244177
      12984.54684958
      12521.10417874
      12852.44285801
      22186.33122182
      32536.93105741
      16771.27282789
      9908.95311890
      16911.68845562
      23200.82429543
      22460.91734047
      9428.46091406
      14542.72389377
      16542.30660691
      20424.68552614
      14049.12022696
      9836.27592706
      13204.70698315
      16734.64133776
      9668.14216920
      10431.88802811
      13093.23596647
      13712.49505178
      4338.91636645
      12080.34355066
      16423.02275463
      7673.51343671
      11260.32844271
      16350.41781339
      9635.85864694
      7129.73765995
      8006.72870945
      5957.11288950
      5102.04560915
      9214.86539668
      8914.28551356
      2444.58734845
      3739.04368096
      4284.30496736
      3249.12898683
      5183.37539277
      1281.90403731
      695.76195429
      -427.61129777
      -2300.84080317
      283.73492412
      -25905.35338851
      28915.02228360
      29656.16556709
      32799.66353609
      33456.72783490
      9826.61705665
      19683.23049293
      28012.55859754
      19729.52295760
      8249.74851598
      16765.93905775
      30764.90470114
      27116.46644682
      5335.69171565
      25873.06503836
      15898.82271796
      13238.99284713
      11425.80489967
      11187.00465561
      11789.47008428
      18957.97564124
      18671.51913544
      10180.03516707
      12566.97285690
      15850.94500266
      25979.99653452
      14749.52184909
      6775.74850876
      21107.95339244
      18253.97790929
      15614.76035817
      13445.58709233
      7680.35382613
      10317.98694266
      19706.84133882
      19674.71320409
      12585.42694561
      17242.15627169
      23976.20017764
      16170.50985875
      12208.75846507
      8023.52274045
      14830.60161979
      14316.98220802
      6297.53031255
      18544.70124341
      20344.11421560
      7157.82944464
      12505.32082507
      12282.19125612
      2748.60906321
      8839.68783055
      10172.80453910
      6718.25708717
      4208.36290457
      8974.06594557
      5547.48071843
      3925.80941077
      5836.37564450
      5134.74199537
      989.62889458
      1201.52669466
      628.83152805
      2156.57120797
      951.73572853
      1376.56741325
      16398.87205836
      38229.97777616
      21446.29691703
      19226.29002211
      25908.25461418
      14432.97310425
      15537.44518178
      17214.61671966
      17905.33260477
      20452.78554165
      7360.46581946
      20612.45014280
      12236.73032222
      14491.32238865
      14448.00577045
      17668.67128504
      13775.82139660
      20485.61450285
      14099.56072694
      14067.47587407
      28480.20139922
      21893.12722433
      17558.57042712
      12953.53732036
      15210.37492469
      21603.36031622
      22209.80252347
      12432.39379455
      12680.78597421
      16775.70899662
      21907.65495811
      16847.39153861
      10023.53199993
      14867.77433257
      19664.14020685
      8627.64701120
      8313.49135235
      12010.32629271
      20271.43782517
      13598.91507737
      8545.86061993
      6256.57156252
      14165.40321868
      11755.42987060
      7451.70589482
      13936.26606174
      11894.22228745
      7215.61458937
      7479.03656059
      14030.28460339
      8542.40732136
      6361.90027229
      9417.58107684
      9758.01047846
      3596.88552085
      6064.75040988
      7663.83432018
      5047.25009877
      1920.80941029
      3513.63517279
      4274.14314767
      5144.62862825
      1447.11398416
      1179.68427152
      -517.94857320
      788.63741871
      -19522.49608428
      12932.40775568
      15159.18847066
      12944.19245818
      18279.83051252
      15447.07294031
      15065.15102328
      6880.58254556
      17151.79516272
      17289.77552896
      -2451.78567743
      25404.06651355
      11796.84739636
      16475.28122383
      20567.04827497
      13893.99479316
      22243.56574204
      19672.37527944
      15075.11331203
      5317.29380061
      21765.90772488
      18045.21920777
      20456.03530129
      14118.86639801
      8024.40354155
      24981.95246085
      29380.25097035
      17962.84603835
      9317.40046724
      12105.86151190
      12405.45627663
      11265.76093628
      11030.36050498
      12429.98445097
      20321.50445389
      15329.09358917
      12843.17651387
      11424.75299102
      8973.37671964
      10872.97513835
      5665.10241650
      13129.91006756
      19071.40633573
      15345.38360866
      7010.54370846
      6862.39834474
      10869.61321258
      7829.64971476
      6734.63231022
      7551.01281641
      9641.01014205
      12434.88400021
      8472.28061927
      9159.23457201
      5392.76996194
      9429.02234366
      6658.27445568
      4752.70264092
      5237.68755842
      3172.55281053
      2303.91031115
      4186.33812512
      1418.92866258
      -28.05266591
      -59.49280117
      928.60142495
      17897.21299765
      14154.20803284
      9454.92996143
      29258.05356215
      20137.85778644
      23728.77678015
      14480.79035539
      21174.84321731
      19585.19648386
      18224.45820557
      -1672.87146574
      12159.67949615
      13170.16434123
      27467.22061245
      19762.19727849
      15890.52641748
      17417.52237597
      17982.02617865
      23610.12105866
      14020.94069614
      13484.36172922
      18824.56368181
      14423.14054999
      15270.82774386
      9120.38292566
      14567.93762291
      17200.95438748
      27353.91275057
      10530.91340607
      20929.83279290
      22543.06946834
      21771.30500740
      9916.79406135
      3777.43361042
      11123.62310575
      26620.56165561
      9478.01693285
      9058.69328204
      13308.28759841
      15270.07800943
      10571.43753393
      -524.68629194
      13479.01345587
      20090.55590408
      213.17400998
      13379.28907728
      18797.10479912
      7933.68274380
      10960.36918416
      13703.63807307
      10408.34004532
      5238.31607057
      6934.91543269
      11744.96408664
      2464.44223986
      4594.34502531
      6845.69632630
      3475.50249085
      2617.39266160
      4248.47188716
      1518.89568222
      1843.75777807
      -98.46613240
      445.40438296
      1166.08935919
      1085.01312835
      32113.58752364
      18261.63167024
      -3448.87392692
      15652.42175654
      20468.12243648
      23219.92406586
      11117.64140235
      32513.59514569
      19336.52349121
      24360.33041326
      9972.51090084
      9356.39499642
      17414.54026337
      20103.17238447
      16097.97800058
      9236.59732927
      18002.98619896
      18179.59921733
      8336.97377213
      13775.97054555
      22125.97771943
      17539.10811516
      24216.00163059
      17889.83600858
      11567.74213774
      10128.19556120
      20649.58204256
      15217.01212135
      14577.17503686
      26308.95406413
      22580.77210436
      20788.90532209
      19093.28514732
      6953.05693008
      21032.57283803
      20242.24036446
      8311.43416980
      9937.61353167
      8977.61608452
      10449.91574207
      10922.47355280
      5011.88378348
      10503.32525531
      20495.30809196
      10508.93522175
      7918.00847104
      11771.25702058
      14583.38069345
      4438.67955401
      7217.02139090
      7024.63800636
      3498.13197266
      6827.67155101
      12136.42807696
      7404.03207084
      4527.32180364
      2764.42267417
      4090.11325053
      5184.91671055
      4155.54232394
      1762.14150792
      6614.72228190
      1462.65045811
      803.01091262
      -611.59702966
      326.91819148
      -20768.01647722
      7485.00242719
      5623.53223962
      29514.58039140
      12775.15652780
      15738.04562796
      -6934.69029680
      27907.30536834
      11667.02818764
      9793.06094212
      1736.42229464
      15760.20863604
      5525.38674082
      981.50330778
      23131.16261690
      39622.06668205
      13308.87694280
      12281.92589250
      2705.80406069
      17529.38898195
      17515.46521705
      17069.80792377
      11251.85031342
      20603.69905902
      10936.98445273
      8617.52306099
      16937.63892715
      21161.33663213
      7438.07681611
      7187.12889213
      14849.53631233
      7530.34349146
      16716.45451288
      18896.19848084
      4325.98920760
      14709.88389533
      24221.53771457
      5966.89427348
      6950.84039418
      13572.78263615
      18819.54866274
      13962.30252308
      6700.58753540
      9697.61110612
      11019.14740254
      -3.03193995
      8335.04343392
      13329.11299859
      11081.87428870
      6515.70081944
      14714.12640160
      8739.15161602
      888.48850006
      8836.56937064
      7389.89461794
      4528.59101050
      6399.47089973
      6670.19912919
      3306.29739908
      5744.78776359
      1204.62295531
      3333.25135701
      2374.59753236
      223.36290926
      -469.20967800
      544.63744011
      8515.27570730
      14044.29514327
      -7561.44754754
      10341.07959474
      8179.01376450
      37568.27185601
      28733.41890422
      15544.49269865
      7171.68224029
      -1880.66953020
      14641.52255999
      23305.97076718
      17775.37764450
      8860.85272699
      16575.22996622
      18793.38324607
      21133.10360830
      15999.23497397
      11706.11692264
      8859.78841111
      16158.81379098
      8117.59999137
      21089.05297510
      18221.82155352
      21022.18071905
      18365.23388042
      14458.66558098
      9347.16940119
      18121.95852070
      14719.17493978
      10560.89096984
      12140.30140620
      19162.38741809
      5126.38141156
      5125.29421483
      16449.12592165
      20195.40794319
      10968.00530627
      10936.73099063
      11108.39889012
      13026.64189029
      6542.70888183
      4255.90288512
      12767.62263085
      19116.01666460
      13680.57450270
      2059.40361282
      5216.55435890
      13831.67494618
      6603.42166931
      9787.27607528
      11136.20746827
      5021.88773012
      9744.92607891
      6808.06455281
      2480.26356513
      3581.83794563
      6049.31088259
      2873.84650871
      1225.75296486
      1908.29371459
      2957.28253570
      1766.04395064
      1373.81064020
      -683.28481336
      1162.79945787
      23674.44760761
      4364.20948910
      4300.48657594
      9925.61196462
      35525.72064039
      15434.60994324
      18699.48880212
      -3952.41018524
      27489.06277857
      23477.68800881
      2507.79036830
      4320.04143297
      18268.74350797
      7729.76762067
      5796.99900146
      10173.65740602
      17527.34071497
      17779.26823783
      14454.76531349
      19053.10987760
      10027.84161418
      13222.90396544
      12093.78220310
      13167.12354175
      17679.32175065
      11525.02298936
      14051.47677930
      20627.76927587
      16271.00091799
      12034.43225509
      11473.98619328
      11200.43196002
      7066.08770408
      15592.96287765
      12876.88198086
      7895.22684015
      20707.36188878
      25902.26964414
      3176.63394928
      5532.35866123
      13357.26761231
      17582.82970363
      14887.16500163
      4912.89457404
      5559.65126386
      9089.48277283
      9126.81949683
      10676.22928795
      9552.22721194
      8580.83938658
      6289.42312467
      5138.64653279
      1866.44873113
      8654.90022883
      8486.77990721
      4613.47002338
      4933.99996171
      4243.13079184
      1720.24888283
      3457.27594265
      285.36346469
      2706.02682696
      3425.47227798
      2447.89977149
      -1354.39739561
      402.41117729
      -20101.56527644
      12987.96935858
      9377.54490688
      16390.39463889
      25713.64626278
      -3001.48610848
      14897.72250203
      18373.87757851
      21691.22145694
      19364.91196199
      8675.19713274
      15657.95750934
      12210.36266056
      10377.06217667
      15517.40454164
      13507.86886964
      15537.82306234
      20763.39844510
      7104.69393200
      16755.24861237
      8632.25874283
      1166.35928107
      2735.80347468
      19649.48793247
      15115.25498222
      15680.50044452
      8393.48833518
      4709.67496968
      8866.38217559
      17890.97921018
      13473.74541711
      3931.64620245
      12694.22012968
      15382.85671979
      6949.75421066
      6328.39685560
      11462.96440977
      12765.50607143
      19178.37774859
      11634.32437590
      5731.99895394
      17721.04564088
      1948.31749633
      8460.89278992
      11302.31882749
      8692.92251807
      5926.78118745
      4650.53709711
      4217.07708357
      4282.49468668
      6360.14143439
      12287.34897566
      7222.42197772
      2378.25204825
      2572.56855035
      951.69366562
      4641.70379595
      5307.71722262