<?xml version="1.0"?>
<VTKFile type= "UnstructuredGrid"  version= "0.1"  byte_order= "BigEndian">
<UnstructuredGrid>
<Piece NumberOfPoints="5123" NumberOfCells="5123">
<PointData Scalars="Pressure" Vectors="Velocity">
<DataArray type="Float32" Name="Pressures" format="ascii">
      -1091.66958080
      4268.47578697
      4000.27454960
      -35561.77368429
      -25076.91863939
      10166.50660624
      -20482.92742986
      4057.49584199
      1828.75163801
      -37979.07088609
      2678.14748716
      -24929.46055353
      449.71303210
      667.51748755
      -24289.64383439
      -193.60164607
      -28172.76905675
      187.73549896
      1162.60501846
      -19896.22698744
      1712.95710068
      2223.16475046
      -595.86674532
      -2523.76472887
      -3539.98112597
      -5087.91349971
      -1970.33597538
      809.75011426
      1841.43703517
      176.40190116
      257.59156180
      818.83917240
      -4345.10310522
      1050.87400308
      -135.19177687
      -954.15802703
      806.79353812
      2182.73381088
      -321.50956730
      188.80750063
      842.80149581
      -5768.94083908
      379.38395402
      -1771.74326152
      -2421.67260719
      -396.46767985
      260.67512393
      226.16730966
      -990.13531063
      -629.01004043
      626.74620810
      578.57529072
      445.86433689
      -757.26580785
      145.78058268
      460.97938188
      25.95678651
      72.79616334
      321.05866016
      43.75915197
      1368.76012516
      283.96110234
      9.27648415
      564.48772739
      764.54836268
      551.49420347
      1929.71542669
      8286.12989421
      2192.58760326
      1582.00402885
      143.26911911
      913.18815085
      318.52354711
      1071.12815101
      704.06179301
      566.41389041
      -2283.48866758
      880.22819557
      576.13873824
      129.64322261
      1932.42126463
      1730.42950779
      2994.09847028
      2146.02880159
      1030.31813626
      -3320.96769468
      630.20922322
      1342.90609978
      2138.20523448
      4987.76975901
      -748.93616152
      300.76492382
      5059.53311062
      665.57439310
      4002.27274897
      -1857.17700566
      425.47013705
      -992.77103577
      1504.66041091
      4083.32237146
      2670.15314297
      -1590.48626646
      2019.61831782
      5593.50339874
      -1024.65537147
      -1936.58592452
      -735.93587767
      2141.22226538
      317.88006534
      753.55477654
      80.30985203
      2915.97262886
      558.03288251
      2803.15126735
      -942.71308359
      -720.82857341
      -848.73375344
      150.13012653
      104.01254475
      62.43860577
      -1532.34678742
      -941.86176046
      -568.58455196
      -110.57479726
      -357.33358528
      234.47996745
      96.90018048
      -282.34427039
      66.68341521
      600.63883574
      68.19888318
      518.90000069
      2543.19910222
      3741.57846172
      2322.71848515
      427.51920156
      3072.73911495
      238.76030251
      1960.84727609
      1411.37148854
      2110.64276720
      1310.86203284
      909.04010749
      2951.08857206
      2459.72200512
      1690.13429921
      6817.44610913
      1842.40530444
      -4837.18258008
      2061.79166027
      4070.52505561
      481.73591375
      -27.86247661
      3219.20159371
      1155.85361611
      -2874.58096464
      2196.24904823
      3699.06913978
      637.17288250
      2175.82587691
      1585.80443776
      1856.27788926
      2199.65560027
      4722.90769460
      3925.20105630
      2806.88480697
      -825.91370222
      1237.37507380
      -385.93937654
      1466.05029110
      -568.81585195
      -5797.76893356
      -254.36314194
      -1380.56659174
      2263.82039467
      -1283.35383549
      -431.27948645
      1976.14074605
      1981.20896587
      -217.49507967
      -382.16730851
      4419.96806761
      1842.08877139
      396.28774393
      -4447.28828153
      1622.72673156
      6315.26791530
      4749.79730966
      181.30403140
      -280.45649651
      -468.93631747
      -24.07848191
      -971.92783598
      -759.69648293
      359.78662356
      509.02245181
      507.92434543
      206.13276695
      2025.70081256
      4136.21407506
      3999.69227146
      4936.03507920
      1353.13903245
      2400.46834260
      2261.46881148
      3245.11286129
      -2137.50313861
      1321.22847472
      1806.47748219
      2626.87156903
      4207.16373067
      3291.53327790
      3641.07964466
      2047.88140966
      3007.61695976
      1387.13358292
      6156.81478213
      7760.46032470
      1825.26158804
      6698.51144203
      -955.03082514
      1280.64501462
      2014.61643075
      -2489.77558285
      1727.33271811
      2000.68883414
      2389.20525762
      3519.28718425
      5158.79473542
      -1816.14410431
      3998.85016887
      155.78949447
      -191.39059643
      1600.99680111
      2749.46763121
      917.70969449
      1323.11792323
      907.40279963
      2850.11903194
      -1391.28277666
      1740.12087710
      -262.24050113
      4351.89945654
      -249.21408780
      4153.46887868
      -1574.57506290
      -2661.04758577
      240.93368207
      846.62173577
      2218.52530309
      1563.68473475
      1994.00511167
      211.26420566
      2143.01338227
      56.30009850
      1162.39248137
      2623.91614537
      3185.19839068
      -59.91774995
      675.56961555
      -208.09575374
      -1118.62915363
      685.59796032
      274.91559239
      8051.83610338
      2601.56803495
      11480.28062508
      12171.98447890
      2765.42269316
      4662.66389635
      4656.94347689
      9503.53652984
      1748.73257064
      2033.84076630
      3138.49405918
      2354.36292396
      236.73874909
      -243.15385773
      3794.12567974
      1046.38954758
      5002.18219410
      2843.07679590
      2068.33957207
      3726.16559298
      3146.48385731
      1622.14997941
      6977.12724201
      1181.92310833
      6180.28081131
      2984.14081926
      4083.32453218
      -127.82212537
      5249.51522846
      618.34128518
      1200.89208969
      -439.40153592
      1188.31949953
      -3556.00064771
      1832.82843769
      1572.50775138
      1085.65893758
      1716.36361936
      1940.23434076
      4918.37202612
      -1021.20133677
      683.07418949
      -411.92081436
      4717.51064849
      1415.04904480
      2269.17629470
      465.19110870
      1965.03237700
      1554.89000800
      -163.24737820
      608.38980400
      -452.65999119
      -768.07165231
      2110.64667415
      4005.69059501
      1699.75833458
      3610.73723773
      2081.45677842
      -56.55509288
      1061.91262586
      -1108.35428759
      831.75391136
      1027.05104811
      -727.68007037
      -432.97048458
      315.40476174
      -17305.06999468
      3481.72066154
      398.20382503
      2087.76142609
      1486.55065402
      1871.59453602
      1896.35092238
      8178.22371040
      3928.07431043
      3971.65854207
      7279.75798251
      -276.79004589
      5186.58149644
      1992.28638873
      11467.72019830
      1005.88541399
      4126.73935337
      4374.04725954
      -3112.66415156
      4299.23922613
      1995.02946063
      1538.09879461
      2173.63207593
      3453.66652207
      -1049.96391108
      -2362.16383493
      5638.37730204
      -1516.23239232
      1719.33897621
      -1339.24699340
      2760.84285820
      768.64482716
      593.32547784
      5846.20135863
      -6912.73196024
      4610.59075158
      6051.77824702
      -4944.27668283
      8894.17228933
      899.83411239
      -1983.98927256
      -2923.23288309
      2178.70468851
      742.69291505
      2875.51669224
      -2160.55853973
      3564.77220092
      4778.42988226
      987.76814402
      4917.28620504
      -51.84769409
      -355.29314961
      1223.68128507
      -330.42611518
      1940.92246057
      2202.93511451
      2673.35666071
      1004.46139616
      -473.19381084
      736.80371666
      1991.66144500
      -39.33112150
      -1620.51968714
      158.57158864
      20.04939020
      471.91454872
      -28807.02041058
      3197.58789104
      6609.74241682
      3249.19178591
      4607.76528828
      10584.41150146
      3723.56716365
      1599.20460700
      13200.36844073
      4162.64860765
      1849.78624486
      2886.71494411
      6412.81903577
      3566.93528480
      -889.55659391
      1729.51298167
      8735.62964314
      2019.69375505
      9121.81682654
      8325.93482118
      1325.39909646
      1583.69844230
      1055.73405890
      8375.54200840
      3526.80091972
      3023.82380396
      14770.50749847
      -83.86416309
      -2693.64962169
      1540.50597036
      9713.50840351
      2325.39951562
      1290.48775063
      1345.00121048
      -6980.52418141
      4067.81075050
      246.54654501
      1650.58423395
      4848.25788534
      3084.33700812
      2904.08785490
      4260.26105293
      4454.79540897
      -2360.20307126
      -2310.64075662
      4441.01597677
      1384.79573467
      2457.67736610
      2251.00598248
      5315.65134083
      3134.82136448
      197.46569383
      5292.53264052
      -199.16564874
      898.14913670
      1219.84643907
      2508.35620680
      2816.13117941
      1169.08343303
      1077.01822405
      809.04725157
      -554.61031632
      213.78906625
      329.21233957
      -597.08056446
      -193.12450233
      11847.40443443
      3169.47569047
      2940.81609601
      1371.86446117
      3935.13773735
      3208.98969002
      7245.61671719
      4111.79922482
      5753.59223835
      3725.04538244
      4197.13593006
      4907.67949789
      5094.75529898
      8544.02881123
      3618.23995367
      2464.41252401
      -1582.77920488
      1554.31917997
      6048.46697161
      3831.18002538
      -1445.04599068
      1740.83655940
      4048.04743085
      1368.82090881
      7956.42870878
      3975.63567469
      -2736.41443879
      1116.07517212
      -3305.86455289
      3814.80280743
      565.49224806
      4755.05608121
      4091.08722456
      1371.12452157
      3552.89485588
      -123.52063923
      6645.88786402
      5152.44635435
      1904.06537414
      5533.99261381
      1410.46255615
      2528.85233092
      705.39095336
      2790.55317978
      2402.23944709
      2672.63460933
      1549.87675565
      -1396.19873514
      2911.48589697
      -41.06828461
      2401.32768369
      2825.07698483
      2857.35346618
      1208.54934302
      1291.83733623
      2070.67853094
      2067.86527731
      183.21712107
      -990.80140548
      1383.49874815
      -1761.64363851
      -1904.43554402
      -417.12889423
      -1159.86576843
      106.21476164
      -474.88371829
      -18063.76538625
      2853.35440717
      1566.41931674
      7992.00931910
      6323.77028754
      6259.26188019
      6108.52980773
      -10337.53830613
      8197.89606970
      4463.48748730
      1692.95965401
      2184.35849703
      4545.51190985
      2460.32517991
      3526.25034178
      3205.46524495
      4535.69536344
      47.68205513
      4162.22414196
      2759.67890179
      2733.76127537
      584.21025937
      4447.42465243
      1531.96682702
      1629.27083392
      4669.78562374
      3261.80119270
      1792.34122906
      1165.03861226
      2305.83544355
      2758.86078895
      2485.47585493
      3926.80515385
      965.22957336
      4650.49906475
      1.12909442
      1248.32806275
      922.96157799
      -665.97563992
      3132.51220470
      2145.45937558
      1441.96139285
      2503.07780621
      2413.33643432
      -1008.53635344
      798.26742473
      2175.39140955
      386.71862622
      977.37959320
      2642.77330246
      -405.44666920
      -198.46153247
      1131.20238973
      1907.14535671
      1746.21723566
      -1081.32731273
      -242.16781375
      2205.13675888
      541.37487377
      901.70603473
      2329.08128569
      1373.35681718
      -2992.59233294
      777.18514689
      -459.69426250
      -613.55477310
      -35532.71009678
      2662.12904772
      7519.80581386
      12682.09664033
      10646.76486550
      15595.20260114
      4643.30395440
      3426.94216415
      3302.71298977
      16947.34411291
      3166.01540577
      115.46931994
      2868.49812951
      231.10075266
      2264.04348089
      8409.95459894
      1176.95532308
      -228.39323111
      341.93633982
      7816.55099901
      2280.97327298
      1641.38484503
      2141.21973947
      3828.94843858
      372.27053926
      228.02932432
      -2288.29664257
      4657.28584546
      2765.24982012
      435.76146354
      994.45066386
      2322.20778505
      4295.08784834
      6659.30763011
      1403.14503187
      1870.88441031
      -153.20193859
      2317.08229365
      1100.52746183
      2053.85899759
      -504.21435888
      4501.56937348
      2338.74747837
      958.32565440
      242.02305427
      3334.84276075
      -1999.13440188
      -1361.95168205
      1679.51091277
      2688.23583854
      -1029.02577053
      4439.43977462
      1461.76940131
      221.47872235
      1410.98845897
      403.58353422
      -1490.84091607
      163.11881263
      -1107.56787025
      1757.00233975
      1592.66730605
      1061.12789624
      760.72496000
      1034.75662049
      374.21799736
      4124.84535353
      -32327.05726218
      3527.50253139
      9530.25224944
      18573.59852684
      9876.93576084
      5159.80184573
      4430.07028718
      10285.12160265
      2294.68374388
      6095.19050808
      2445.72008962
      1083.28605093
      2451.63802337
      10243.41415389
      818.62104673
      1364.41547991
      -1030.97128976
      5737.17631862
      -569.38532609
      4295.33046068
      1530.41210431
      4723.76599481
      3162.54863001
      3790.44955889
      2442.72760334
      2139.53126750
      1083.41088502
      5134.19092561
      5327.65260370
      3544.66446851
      5635.85179867
      2818.84743806
      4869.13441333
      3716.35572094
      1381.83096706
      1411.69787768
      959.92338447
      4785.20174135
      -1673.78762242
      967.36882673
      -113.49530647
      5281.14559690
      1969.46449995
      2764.82898865
      -600.89361898
      2229.81761241
      1139.57109554
      -2012.47193377
      3869.12990682
      -57.34487797
      65.34638569
      -2059.91553479
      -485.69115097
      3270.89608606
      2021.81978074
      -189.67158285
      2433.78383988
      92.61728956
      52.39291457
      925.93698925
      -358.53824761
      1969.38704680
      425.35333729
      -1208.33004707
      586.32296259
      2343.71334971
      7567.51572848
      7458.62202082
      5720.65043101
      355.08450722
      2509.87796660
      -719.42872074
      2913.33649010
      2847.07411857
      13.26332908
      2698.18445874
      3150.13651017
      5334.07444254
      4713.40397459
      14448.18982578
      2858.59939754
      4331.56677784
      -3172.23590096
      3124.31493975
      -301.16486886
      -1020.03328787
      2025.34833820
      1706.67532612
      7922.63622462
      1489.87753125
      1745.89470327
      325.59993451
      2957.06978992
      6102.38488339
      -2197.38119526
      2882.17254445
      2119.82829281
      -1340.02084060
      4428.54475726
      4310.26351290
      1115.04992689
      834.74792007
      3256.74591107
      61.75371780
      5089.47636589
      1990.38159971
      1991.97083774
      2339.14483533
      1349.78239817
      1806.15029328
      -1530.73108572
      4115.55309209
      2282.70956310
      1156.91078550
      3418.13074692
      -747.89023860
      -1389.05221418
      -482.10152043
      475.76562265
      1645.00103222
      -2362.80388209
      3451.11313831
      -875.07063513
      -339.97232990
      -1110.68310305
      1105.02881568
      2138.56059675
      -1929.48287100
      -321.02606622
      371.25849074
      -194.06837141
      670.92352116
      7929.30556902
      11120.25104026
      497.95891094
      12815.86489325
      14136.70285804
      4135.58441230
      2990.73904892
      4169.40104580
      5467.26308757
      -7216.44118262
      771.43558747
      -9430.04913933
      1398.77783068
      3561.54170702
      400.97303147
      887.26670531
      2706.81312143
      335.58828598
      2131.14880571
      -910.28502111
      -738.05219393
      10120.99442423
      2950.68987161
      546.75553905
      -2927.83768827
      2728.87581138
      2415.14159161
      -2209.56399394
      4940.72698384
      -1033.53868662
      3878.92291707
      4027.85721042
      6048.36827897
      591.44181014
      -1363.43324676
      3918.25489253
      2170.02692431
      417.91576774
      4989.74186333
      -2844.50334672
      2319.13065504
      2247.07359343
      1379.41239973
      -3193.28941079
      -2775.00511515
      761.20629518
      6564.73197147
      -4466.14020098
      39.99040576
      2371.53006642
      3841.39408764
      1436.78433159
      2800.33447104
      1102.68070273
      161.17449501
      2591.84909124
      844.47271410
      1730.91590363
      1548.14219136
      458.80076421
      2810.58936882
      -1478.85298734
      119.11217637
      682.95291052
      726.00388053
      2804.65524129
      1614.44442526
      6947.57850134
      1671.67467770
      2705.86678540
      1694.62936556
      3972.11406896
      3201.15300701
      11398.54914345
      3422.81723605
      2686.89142420
      4134.25529826
      923.75041592
      -881.13880525
      2702.89301187
      4060.73862872
      4226.61042595
      4064.74444394
      2177.64203002
      751.61427264
      1675.25746083
      2933.14324307
      917.78885912
      3877.54322799
      2328.20719756
      -2862.19008843
      -22.48893211
      1461.09679174
      1777.89591238
      -2060.36844599
      -664.67007947
      2313.45650219
      2716.41341343
      6304.02045579
      -2015.50310336
      1127.42519858
      -755.94808483
      -1356.31520647
      1857.71835900
      -1763.97196903
      1648.23374289
      1721.37477163
      -639.59233692
      1671.20176185
      -888.83363589
      1897.88828457
      2773.11819798
      499.47828781
      1539.62759989
      2293.68624008
      1130.02204667
      2014.03974642
      1908.42390487
      2906.94427986
      -3008.07018000
      1247.54053504
      1278.06493323
      1071.37560125
      2039.68277742
      411.88348149
      564.06761336
      2480.42499401
      -1211.12491932
      708.23558612
      525.64491244
      811.23414622
      5735.80269139
      23744.91119138
      -2982.16051218
      10063.38905527
      3559.32714506
      1477.01986301
      4913.45936366
      6810.74495989
      7185.68272217
      1682.46613048
      -1644.56924480
      865.74455500
      -650.35985804
      803.16960706
      1993.97374274
      -536.31919661
      4289.49432887
      4522.93129104
      8404.05176194
      5029.24874062
      -249.03795394
      2359.21474348
      1360.83832914
      1459.44395323
      3997.81179188
      2580.30831047
      591.60818439
      1981.29804487
      393.44844377
      2402.34454772
      3235.76204789
      1827.79445718
      331.12950632
      1667.39405559
      2345.69445395
      1507.54321186
      2331.46605144
      891.22681553
      360.95237325
      1404.37396889
      1513.53821453
      424.34235945
      2504.27844117
      125.65316053
      377.89414864
      -5045.82521090
      -2099.57927942
      2662.89293168
      1034.66599576
      1540.17180551
      -979.09628251
      1046.42601259
      1768.86785277
      1012.81706142
      458.45147996
      -317.72393921
      916.19485176
      1839.04533620
      1580.21512083
      -170.76861612
      693.13029043
      1149.33952493
      -208.36845397
      802.46832604
      579.18215977
      178.53892139
      884.98869166
      3771.79972768
      15271.12684009
      3444.61054491
      10732.66634491
      3382.63091447
      4332.61199679
      2419.82563680
      -95.14800520
      5644.40890886
      44.83073374
      3037.71046733
      2021.09866233
      3052.40197282
      2843.43062330
      -3519.67890515
      9937.36713147
      6726.26494006
      6449.87014109
      -7144.25327584
      2416.43702443
      2328.36495692
      4474.51151791
      71.53086874
      2269.37915997
      3540.38071827
      5806.82838968
      604.16354603
      2853.02473956
      1502.90198394
      2298.87413510
      1573.40996499
      4270.59550199
      2852.94732081
      3084.14210772
      220.68929885
      1462.68546741
      -1.83311554
      783.42676877
      1230.50350056
      1805.01318295
      -49.05529241
      2554.82682097
      374.39975854
      4515.94633768
      1918.50165294
      -2190.16491940
      -627.11723532
      -787.25101931
      1431.69096544
      1640.99911362
      4452.52985717
      241.43035200
      505.33226127
      1719.08917576
      532.62244971
      488.38260374
      540.39387791
      -1326.90298731
      928.64278334
      1232.02107909
      -102.41685093
      -211.49347306
      571.53159787
      -394.86119640
      1192.96582535
      -973.32372312
      9779.16084147
      8825.83815113
      1305.57316695
      9395.85741413
      9317.46998510
      3398.50385956
      4777.92756553
      1258.11629174
      4783.15498595
      -3180.04515379
      5607.72100865
      3008.49409125
      11007.23391557
      -2998.67945340
      8759.19265919
      996.56870575
      8503.33553932
      6459.43001983
      5677.96261904
      12350.51185927
      8311.78486933
      4008.21320100
      2458.72881630
      4172.12091900
      -678.97919244
      8861.87920875
      4574.18847265
      10376.20631624
      -2789.33802971
      1993.25557038
      -2566.30786496
      8968.66413458
      8078.38833771
      2294.73192050
      1532.58136284
      522.23216298
      5651.95613180
      -826.95256680
      366.69236020
      1623.62424000
      -370.18896151
      1234.18100688
      -1181.39961517
      708.16575153
      -434.05400321
      3500.13890466
      1631.92358672
      -831.32169408
      -2439.65819620
      686.70884985
      2241.90646801
      1485.99488652
      1885.89777219
      -3186.51922539
      -1512.53923453
      -811.96517098
      883.67534345
      1353.86864197
      58.27918689
      332.46322122
      93.62241844
      318.42665875
      113.02230212
      439.85505127
      -91.07510634
      -653.56514917
      4353.50291969
      -1643.35400700
      7625.25201985
      5250.92550588
      1792.48630746
      1857.67014744
      728.24400833
      134.85799409
      2664.47362016
      3536.16893965
      10559.26208166
      1204.56713886
      6522.13426846
      3080.96810865
      2104.35732691
      9034.09597009
      9782.33894654
      -8652.16891207
      467.66851190
      -2592.57085193
      -1439.82423575
      5296.07740782
      6411.54802010
      4472.49196840
      4019.40858575
      4235.59797560
      3397.17584205
      11634.38712738
      5698.84301158
      6731.40596148
      4509.74820358
      3072.53369756
      2954.19229200
      3927.95916987
      4978.11427110
      10151.91148981
      2925.71512000
      2184.46314506
      -511.52534569
      2692.20219575
      -2492.90754153
      -3396.46418603
      1622.12982733
      3319.04510199
      5306.01556467
      988.76049241
      -497.36045740
      -64.35132905
      119.01205333
      1023.42601128
      -1887.56699657
      -227.07891107
      2287.77876632
      324.62123003
      -2164.81087136
      -357.04535564
      943.46740934
      1246.88955089
      53.16837918
      1509.16940812
      720.63020200
      -215.95899682
      -148.45727561
      296.94050906
      374.41255066
      45.73591685
      14436.71467020
      16702.61621436
      3371.30357197
      -596.73583476
      4367.76184241
      2628.38971476
      6560.10753781
      5213.28226780
      2691.12265925
      2371.23707928
      2358.27177863
      10698.65587100
      -286.37102475
      3298.42075297
      4697.85531740
      3147.88372102
      12999.51951874
      2491.11670336
      12365.94668635
      191.21210965
      -210.59764884
      -783.68268400
      3402.12267762
      4910.75478575
      5976.94684242
      6528.80718364
      6382.24652204
      1962.78084990
      4786.34257947
      2906.58394128
      -2312.97136278
      -421.84990983
      13172.05549319
      -10068.60595448
      7033.99201689
      5340.13811925
      4879.25726142
      3501.19185935
      -3127.29161918
      7474.61496132
      1359.65839992
      -3524.50052173
      6911.78541413
      -1689.37722568
      9044.70515665
      4314.20462851
      3028.95742986
      420.96855152
      -301.27397454
      4655.47098984
      414.79799501
      1276.94004463
      2168.56207234
      -466.08336415
      -2429.98889342
      -720.85363825
      1202.81213731
      -101.13151754
      -1442.85525697
      -710.64836037
      -1394.79244113
      -273.65619651
      -335.23670078
      -9.26426690
      -171.08346901
      175.27398446
      14621.94933325
      5069.34996026
      7185.46508119
      6240.83885486
      5591.61979948
      6467.24794964
      3300.40867448
      4316.50694813
      9097.26352515
      1862.54991505
      2248.27353802
      23332.47918192
      4012.47434659
      -4789.52067233
      5401.21814883
      1363.71987742
      2007.71997603
      10390.26333728
      -1906.99611011
      3434.72091692
      7275.79839334
      4057.06408838
      2980.83249343
      3218.49108637
      4802.89991401
      -2304.56244107
      587.65854162
      2544.34390338
      -1035.94255832
      2218.62279590
      4670.30637151
      3017.85524081
      5179.71533928
      2923.24752387
      4064.97759152
      17602.93650596
      -751.06247213
      11278.78257449
      3334.97044005
      8404.88681296
      4347.39408687
      3951.23526452
      4273.16189689
      5402.83010364
      -2837.64800034
      2593.34153278
      593.22260784
      773.64756870
      -1189.76030857
      815.45921077
      382.71409856
      620.66624521
      284.76753831
      245.10647333
      149.34445073
      -740.46965299
      -129.67059373
      747.70761537
      -180.37559703
      -464.19726901
      131.71407624
      443.13273471
      1120.31015578
      758.69081421
      71.67188764
      -281.91431165
      -7561.52040309
      5463.69496749
      1363.86482836
      1234.15394102
      5367.71868027
      13686.86345132
      6682.81109194
      5814.98446842
      2815.70266480
      7470.60317010
      7355.05720829
      1516.34831038
      6714.74555463
      10886.99426382
      1302.53647708
      325.86584396
      2738.60702674
      -1673.40403999
      2047.97194665
      3307.81048089
      4477.85884637
      3734.08733709
      2741.47650067
      6777.53244512
      3268.59667160
      5763.33004641
      6286.82669337
      -2027.31262605
      7914.13305564
      6670.72710642
      121.60318329
      -2957.94658714
      10587.72684535
      -549.85949051
      1489.24269221
      7051.50080593
      -3820.67622546
      12198.37148209
      457.55594762
      5772.08056607
      -675.91753615
      -3050.06622363
      -1778.75752573
      8118.28512056
      -256.75358517
      720.46138725
      2457.07750688
      2414.81312647
      7478.73772005
      4152.77058713
      686.42947067
      1891.69489746
      2978.01282436
      1225.21353193
      3452.72330338
      466.00949974
      772.79293747
      -416.21055318
      1356.74476687
      1896.68340030
      630.03868309
      58.39542750
      639.94509923
      820.81598425
      383.88398054
      -7.04304681
      -19965.59071168
      6135.83520170
      2265.33689300
      592.01498051
      6593.32853476
      1424.54368336
      6939.44202254
      5341.39218728
      -2599.32072740
      -693.39046333
      -3182.11271341
      -1371.69757763
      6706.43348544
      -701.86890955
      3298.44014971
      -3689.46717186
      -5198.31993603
      6981.71115873
      2547.56834941
      2996.61524139
      -278.14029279
      -4287.30507400
      -1812.77922516
      1159.78414964
      -870.49677711
      2626.64430909
      3842.46347156
      -6359.90425372
      845.05080960
      -6012.93402896
      1235.86650881
      10362.45216681
      -3550.62390591
      2297.99440849
      6761.06851310
      -1786.61081053
      4774.07333903
      5077.84200222
      6209.89626050
      -2979.57753436
      -1498.47370546
      11372.29069476
      4409.90149017
      12997.95371266
      3799.65845092
      8672.96477555
      371.39584383
      947.96525959
      4900.09835412
      2676.89927005
      2080.50502284
      8007.71476558
      2737.45451907
      4143.25710585
      9211.06190051
      3934.79395804
      1286.27605250
      -1032.98141382
      75.67436918
      -733.78108392
      368.01340574
      646.40100717
      -540.74518005
      -746.46804792
      -1269.09941011
      -516.23216884
      -20679.69231914
      2539.74504439
      5263.21148563
      7312.99727066
      8973.81775594
      -1294.78897572
      4425.59551994
      -1615.98442287
      3492.99696782
      5171.86103489
      5815.55404284
      2696.61592237
      4834.32293188
      -18062.24424720
      -1727.36968789
      6993.30332478
      4311.20738422
      7317.11013175
      -5300.75862758
      11274.04452491
      6577.51486420
      1083.60719616
      10971.03610311
      242.10779260
      613.93055171
      -140.55525720
      790.69299251
      41.29110107
      -938.56065917
      8496.23366879
      -1237.91703207
      5665.42274979
      1560.24024079
      -4236.81208079
      -5883.96835786
      3283.49390521
      3728.26846589