<?xml version="1.0"?>
<VTKFile type= "UnstructuredGrid"  version= "0.1"  byte_order= "BigEndian">
<UnstructuredGrid>
<Piece NumberOfPoints="5123" NumberOfCells="5123">
<PointData Scalars="Pressure" Vectors="Velocity">
<DataArray type="Float32" Name="Pressures" format="ascii">
      -5663.43748597
      4715.41610947
      9229.87368858
      16682.92015585
      9783.74334400
      8028.48612682
      13786.23514838
      5140.74670591
      11261.38138819
      6118.18869126
      5183.06041823
      8501.50681864
      1616.28819734
      6836.57713526
      7094.21190971
      22.45324047
      6385.89605262
      2707.51600177
      3855.20739409
      8377.76458975
      1374.08865807
      9729.76688232
      6727.74116111
      6921.78177149
      10927.07943651
      2976.94105918
      10851.68211565
      10823.04292291
      3418.92246141
      10346.09025060
      7521.22508255
      7341.56956470
      9680.80226556
      3619.12640734
      8909.62557401
      6488.99402949
      5605.29377889
      7507.81245598
      2594.84786404
      6559.25043359
      6327.28605208
      2252.01806784
      5610.30470781
      4039.76721932
      3738.34321469
      5009.70671816
      1984.13505422
      4410.07006097
      3146.07023836
      2482.53590946
      3444.52746842
      1239.35834503
      2713.84552087
      2608.69770922
      959.89171847
      2056.01877532
      1482.84360212
      1192.66404548
      1603.92267194
      546.37030087
      1222.88150011
      706.04666680
      414.16853330
      558.79359210
      15.81770823
      131.30190926
      -1299.14511178
      2551.35622839
      24.98928182
      1569.52031997
      2519.71579146
      1308.30339702
      1592.60299239
      -640.09113013
      1596.48308188
      2145.45709998
      1817.54192213
      2211.36347082
      -917.78377987
      1582.59764797
      1121.63540153
      -885.66559254
      914.80960016
      42.57322002
      -43.17072490
      -68.82490861
      -1480.54792590
      378.57572159
      -14.04678936
      360.37080437
      541.89141795
      -1386.15161910
      874.95173002
      734.35071080
      -1162.64268020
      1294.08277885
      851.46954723
      1227.62590418
      1184.79504236
      -1076.83217061
      1381.26011905
      876.11172146
      934.86088844
      1062.91462568
      -1157.34007088
      857.00386289
      601.51131643
      -1173.39460935
      858.31288947
      336.06401341
      643.93056017
      650.79054158
      -1060.59565779
      825.53513354
      300.94509907
      457.63735184
      559.55522498
      -930.91992051
      457.04152293
      226.14328121
      -804.96789494
      383.32172201
      6.32019559
      267.80090840
      215.80866668
      -501.39238042
      384.07063873
      18.06983643
      193.41328194
      189.00919295
      -154.71117474
      104.73909606
      4711.58220937
      4812.11314035
      5289.97828395
      5043.46094569
      4343.56174128
      3309.74163211
      3105.44715048
      4104.71864301
      1336.74876070
      1883.15226511
      3366.76850109
      1676.69166379
      1878.94102799
      1908.30551846
      1194.12804214
      1531.74943350
      1610.57548222
      3233.43645747
      2182.48732659
      1209.10474605
      2001.97869034
      1037.46159202
      2215.98010305
      2807.44027466
      2091.75423946
      3081.51489845
      1745.95483247
      2089.17394614
      3317.44824349
      2214.80888489
      3249.65550613
      2592.57172638
      1915.85741669
      2772.43278143
      1681.17675596
      2273.57235889
      2573.74749128
      1863.05996872
      2661.81569009
      1343.87810659
      1419.13671391
      2344.44958978
      1252.53763323
      2014.23815330
      1500.77507421
      995.16835326
      1625.24782007
      777.03708219
      1185.01325027
      1292.69485238
      869.22248730
      1417.85746926
      484.63474401
      600.09405332
      1109.56981014
      402.54328420
      838.83374306
      544.54112319
      323.06855187
      534.44032732
      189.49926100
      272.58203596
      225.50787965
      218.59434144
      87.41037193
      -98.19103563
      5751.58488532
      6437.79141738
      565.90609806
      3474.91940629
      2809.16486450
      2366.96307289
      4128.60323822
      762.76931963
      3574.62558785
      3044.25500828
      2208.98453979
      2913.03256923
      1487.35750446
      2964.68186320
      2771.65542887
      1056.97877547
      1357.91430938
      -94.85779676
      -452.54406531
      1173.79757670
      -1721.60862537
      1284.94588608
      -662.65811468
      -478.20184904
      1483.29233033
      -729.41000496
      2573.35111499
      3020.49740195
      -213.71818632
      2697.90579825
      1590.32308367
      1264.75917257
      3118.96103699
      -172.91015442
      2911.20005116
      1440.17031847
      1307.31423018
      2323.86685542
      61.92744739
      2244.36055885
      2358.18703180
      -74.21268947
      1642.22216040
      884.51338118
      529.18096690
      1724.72710402
      -208.57616417
      1506.41752942
      723.84428874
      542.26071148
      1142.92625338
      -46.79597122
      960.21934076
      1137.26919032
      -146.08097866
      604.19645928
      324.94065116
      20.65969206
      593.81579350
      -116.76622644
      423.98956633
      255.11323727
      125.55449951
      231.98213193
      67.24581731
      -35.14510762
      172.12786698
      5340.16794483
      -2310.61530455
      3917.28778520
      5375.52473849
      5470.09267612
      2864.43407029
      -1984.25374189
      3454.70323167
      2090.12478755
      2196.97306650
      1276.58018347
      -2766.69352111
      1103.22907281
      -486.97018697
      -3243.74579586
      -536.54276801
      574.07002036
      -85.14398684
      -1747.74048925
      -3767.73734386
      -2298.82979141
      91.49200852
      -266.09571560
      -912.54404374
      -2750.40961339
      687.99234840
      1085.50477161
      -2190.43845650
      1011.47694454
      1782.67011159
      1626.75593733
      847.09104203
      -1913.93862585
      806.23195955
      1724.96097202
      1326.70446417
      951.19173755
      -1283.76718960
      1217.46581796
      1149.78321523
      -1248.88075794
      737.07965938
      1169.60679529
      815.51738731
      379.52109262
      -1206.08815372
      292.17546470
      926.87622663
      541.08531819
      394.16445051
      -721.00451078
      492.25163306
      485.39910621
      -657.97136545
      286.52772115
      535.54707056
      127.88524316
      111.07133731
      -442.66016980
      28.00430328
      353.49904663
      1.80303817
      71.17489806
      -121.90867648
      3.03654660
      -46.89267258
      3829.06247422
      -1700.75735967
      2903.65011909
      3122.52276678
      1952.41642029
      -96.29726061
      -3407.45875778
      932.82199718
      1138.58484928
      1856.79168153
      -1340.74723548
      -1800.06988116
      -218.80089845
      -1275.64554994
      -1674.00080665
      -3411.73244606
      635.81666978
      -737.33869612
      -4475.88244454
      -4121.60609078
      -5707.51857982
      -1541.14728612
      -1561.98407337
      -3794.00003674
      -2603.34469043
      -1535.00848816
      -841.72373969
      -1872.10341202
      -1365.31974926
      803.36358064
      1114.79612930
      -1032.17261247
      -2402.38072647
      -893.14689396
      1068.65027264
      857.99165044
      -693.94079986
      -1089.72377914
      7.29611673
      82.63984844
      -1014.87559419
      -831.80594471
      502.80293046
      653.72786545
      -798.36974880
      -1523.06433227
      -683.10314916
      485.33220713
      399.58368284
      -511.29350912
      -638.18292240
      -116.72595987
      -26.98437176
      -524.31000077
      -486.37957051
      108.10548738
      245.48656910
      -411.88881951
      -538.25859894
      -231.48522862
      69.18703422
      190.13190758
      -81.12833732
      -13.78050538
      -197.45805460
      7336.36827592
      4560.44807243
      -1350.53029535
      3016.46597306
      2864.75060054
      -35.73958189
      2651.94823309
      -3078.83088627
      2013.34223018
      -1714.42979869
      -1550.18721965
      696.14599334
      -4033.04998008
      -1827.44094132
      -2612.53630318
      -5115.62055588
      -3087.52214301
      -6782.46734489
      -7577.96718569
      -4486.21799715
      -6976.75587167
      -4523.30884292
      -7383.07375898
      -6473.09189730
      -3192.80284596
      -5697.78233043
      -2105.80890645
      -1626.99095263
      -4621.82804249
      -623.43459188
      -2484.56059306
      -2846.61087262
      -108.55425656
      -3412.63710663
      -76.18517683
      -2006.10995125
      -1993.51086180
      -84.38098386
      -2858.18782178
      -359.14311555
      -399.39169656
      -2766.96351816
      -349.15966418
      -1560.29739266
      -1960.98942408
      -195.04056154
      -2140.93891618
      -211.29587560
      -1202.35023270
      -1291.37027818
      -148.12722918
      -1537.83217175
      -299.48037035
      -291.08236588
      -1421.55705458
      -315.45170720
      -701.36559966
      -997.38527134
      -127.07200883
      -767.04690765
      -98.37423445
      -211.51553325
      -324.76630127
      -51.62465380
      -100.60966991
      -227.33416967
      -8842.64614116
      -1354.39536969
      3395.30665042
      -658.86414501
      -696.97294053
      -3569.56480707
      -2973.03480074
      1653.41953325
      -4869.26411131
      -4725.28919734
      -2122.02400980
      -4789.39010692
      1191.43201379
      -5545.21066095
      -6165.62694459
      542.46276375
      -5823.59028918
      -2213.34369965
      -5229.59104183
      -6702.37341247
      -824.27078206
      -7865.10532109
      -6396.94805767
      -4913.35694289
      -6433.22977785
      82.69000902
      -6867.74426531
      -5952.91053242
      784.22945575
      -4494.05960672
      -2589.15907425
      -3762.66468743
      -4138.88361082
      764.09835057
      -4054.73909142
      -3392.64260672
      -2051.06546629
      -3172.32375422
      1011.66296280
      -3735.25059345
      -3443.94323306
      806.42025374
      -2738.57676423
      -1533.75954002
      -2283.69358541
      -2555.09343116
      370.30839918
      -2513.99004948
      -2034.45920848
      -1235.55449879
      -1778.25427056
      487.02315619
      -2033.87712551
      -1696.05801756
      314.32346357
      -1285.69936228
      -659.43910037
      -890.63557711
      -908.30293557
      45.94598472
      -793.09916961
      -616.84501254
      -335.77105737
      -299.53894350
      27.04202731
      -172.18045494
      6018.92238298
      2495.26363203
      -3650.86508107
      311.36759386
      1128.94447702
      -2222.42640811
      -263.69910419
      -5590.87605245
      -2292.38557034
      -3168.64236274
      -3379.24059796
      -3148.89743390
      -6167.49061590
      -6591.89271403
      -7930.25660192
      -6915.49323788
      -8442.26481036
      -10553.76824537
      -11670.68788943
      -10191.46221879
      -9991.44095074
      -10541.78743195
      -11384.39196970
      -10408.30597694
      -8164.82423954
      -8454.21690666
      -7493.39402988
      -6518.73493072
      -7018.69955009
      -4575.67647890
      -5308.47955880
      -5231.46759525
      -3788.17945079
      -5458.91844454
      -3574.50014067
      -4319.96480977
      -4143.55983913
      -2960.09455126
      -4580.58668561
      -3671.79687733
      -3375.97847443
      -4285.24936755
      -2759.96589781
      -3359.86663326
      -3371.11148996
      -2394.94363779
      -3354.09405470
      -2234.96874457
      -2599.83660828
      -2458.13611131
      -1653.25642070
      -2455.18436208
      -1988.71484941
      -1691.48326281
      -2139.91087496
      -1332.99822185
      -1553.69925633
      -1468.28196253
      -924.65165760
      -1184.55510679
      -699.45092186
      -734.09447849
      -519.19757206
      -146.72575218
      -170.99592447
      -285.91796888
      -5271.50069893
      1052.35043825
      -5168.96656766
      -1334.16945010
      594.63759917
      -1298.85056732
      -3906.28423169
      -6121.82748613
      -3927.02122616
      -3508.21882773
      -1291.89730169
      -6601.82872522
      -6580.89658250
      -6370.31520496
      -9720.68104851
      -6983.76829985
      -10938.41001798
      -5781.20362603
      -8166.29772259
      -14927.75225801
      -7818.67862895
      -15607.24712754
      -8911.85674800
      -8384.02177549
      -12416.04195960
      -7559.06704335
      -8969.31214297
      -8074.91659374
      -6225.01113870
      -7684.64712798
      -4041.98807000
      -3794.53337229
      -7457.63564524
      -4730.84510050
      -6693.11685524
      -3112.18383367
      -3068.34225996
      -5715.91063113
      -4165.66861061
      -4529.30510513
      -4371.96314053
      -3710.59429516
      -4664.59898285
      -2374.28929154
      -2385.47075667
      -4730.26334793
      -2851.48790284
      -4043.81195386
      -1804.52491515
      -1799.00519971
      -3258.55503632
      -2234.48896621
      -2407.56313481
      -2193.17458593
      -1763.63963936
      -2114.57262374
      -997.19907943
      -1040.67881320
      -1885.57061812
      -958.80810227
      -1208.77594873
      -351.42122557
      -401.62863480
      -515.89252994
      -234.48856438
      -36.83147913
      -4547.34175470
      1185.18425825
      -3483.97489429
      -3389.57932301
      693.80725483
      -2046.63703260
      -5137.00119792
      -2250.93628523
      -5106.70874905
      -2819.26629051
      -3316.30822996
      -10455.24426460
      -3396.64336603
      -8692.68246016
      -10872.08030577
      -3918.67821174
      -16277.61898272
      -7842.32403251
      -9802.71716945
      -17566.66299568
      -5061.02803522
      -18336.59744796
      -10525.48838592
      -9961.30882196
      -15739.90167540
      -5419.49473407
      -10664.70282115
      -9693.57610899
      -4258.14144214
      -10685.15301068
      -5363.67156508
      -4599.92115040
      -8903.72207083
      -2834.80581533
      -8060.86402500
      -3995.60841786
      -3906.83856902
      -7735.11097664
      -2652.30587576
      -5517.93707806
      -5353.44039665
      -2399.59006186
      -6619.92197566
      -3287.00055208
      -2792.19424955
      -5599.79748182
      -1687.57337103
      -4812.89264331
      -2378.04512441
      -2183.62182216
      -4303.02860426
      -1419.78367648
      -2861.63322689
      -2694.43852926
      -1151.17115830
      -3073.62152981
      -1544.61492337
      -1069.70973566
      -2244.09924688
      -582.95690679
      -1420.98917067
      -686.51159723
      -345.77245029
      -741.92968008
      -165.11166008
      -140.15064938
      2183.65373388
      691.98384903
      -3265.30822091
      -3956.35093981
      -1305.18693812
      -7336.58401145
      -3331.92549669
      -4712.24343000
      -4288.30791077
      -7026.55653276
      -8856.37054615
      -8684.15206383
      -6405.61461972
      -11898.69358262
      -14457.32026777
      -7827.79961525
      -15749.75024240
      -19731.51103417
      -19308.88948699
      -17829.78022602
      -12397.62853350
      -17347.67068794
      -19224.27814590
      -17952.58504288
      -15253.02215209
      -10300.66355237
      -12876.13883984
      -12422.42437884
      -8413.94495428
      -10026.14001278
      -11158.49851481
      -10296.61442700
      -8388.94285528
      -6546.04507805
      -7555.63866477
      -8987.49901681
      -8629.55948347
      -7358.40243511
      -5623.93645590
      -6978.82770402
      -7220.91538750
      -5095.29314246
      -6181.41427120
      -7000.62934052
      -6392.25365678
      -5246.86333316
      -3972.88638643
      -4505.92180897
      -5265.09513573
      -4836.53592158
      -4098.93080756
      -3033.02221411
      -3517.53417890
      -3753.22138930
      -2483.39196105
      -2827.46615419
      -3136.23932621
      -2540.01209093
      -2066.46684063
      -1361.67560521
      -1280.46294740
      -1454.60145575
      -896.32779475
      -692.85499512
      -377.31042113
      -195.98808646
      -13172.38570747
      -1957.78704449
      1402.86206478
      -2811.16132767
      -717.66184736
      -2419.91968266
      -4320.43061028
      1039.21945071
      -6124.58888635
      -5039.24768396
      -2204.21218951
      -7223.95470790
      -2173.19634721
      -6401.33039340
      -9036.75217714
      -3709.09813447
      -10546.83764313
      -4777.83950482
      -8156.73115220
      -13425.20483762
      -4747.24412414
      -14748.94092003
      -8755.51576471
      -8319.77041687
      -11987.06952250
      -3550.25270138
      -10683.36391912
      -9204.09168467
      -2306.01502818
      -8827.56113913
      -4617.80222511
      -5413.43504175
      -8443.95118604
      -1081.18878206
      -8038.98514296
      -4482.22729993
      -3708.70187709
      -6487.42170270
      -891.60523071
      -6031.73177149
      -5339.99108573
      -925.29600755
      -5426.06553297
      -2685.06438792
      -3299.68241351
      -5174.15764189
      -568.29900712
      -4835.44077172
      -2531.30245254
      -2124.27883722
      -3597.82380447
      -384.96694847
      -3272.86402603
      -2529.98308475
      -430.22089642
      -2483.82525693
      -1104.06199657
      -1392.63565353
      -1911.12066545
      -172.86937646
      -1525.79093297
      -610.68765579
      -528.08872288
      -579.61082598
      20.75713802
      -296.67885550
      5053.51214371
      629.02151165
      -3604.77521777
      -2051.20201563
      -72.62375390
      -2663.06027851
      -4782.80377954
      -4073.17099606
      -5717.52440887
      -3032.94728350
      -4582.98600884
      -10244.95033443
      -3831.74656384
      -13378.66662879
      -14899.37958657
      -5931.69525276
      -20224.70034972
      -16481.68702672
      -17153.13100234
      -21690.05230644
      -11598.50136008
      -21495.68548238
      -16796.64626780
      -16487.85918071
      -18093.24153417
      -9410.22416775
      -14982.11135656
      -13608.24942524
      -7550.87145660
      -12653.06387760
      -9804.74807130
      -8297.13296071
      -10387.89671106
      -6463.40779383
      -9641.38992064
      -6863.23965754
      -7550.64321425
      -8975.75120948
      -4910.64627614
      -8435.97494479
      -7751.78290850
      -4423.24826849
      -7887.77253494
      -5990.07398362
      -5104.47340975
      -6377.28225477
      -3887.93717798
      -5741.25695040
      -3875.58952973
      -4203.88830661
      -4880.23567673
      -2607.92321329
      -4499.03157042
      -3781.25101646
      -2121.53706075
      -3707.43424679
      -2624.29239424
      -2111.50562429
      -2383.66587407
      -1352.36605154
      -1706.03224433
      -908.02215210
      -787.97546333
      -578.64202715
      -321.63791133
      -222.08477890
      4121.53063273
      104.35286662
      -3319.75907258
      -1183.80141154
      -1134.09459179
      -4336.98396234
      -3813.71467330
      -3464.47982546
      -5905.53071906
      -6329.93316568
      -7184.53874831
      -9717.80331800
      -5105.13263522
      -15204.62339780
      -17507.82396048
      -7532.57876205
      -19870.84866587
      -19875.54587253
      -20579.38547206
      -22799.40192356
      -12109.66119455
      -22152.24977509
      -19983.92454800
      -18959.39548431
      -17973.65722199
      -10523.04187343
      -16613.78830044
      -15563.66306341
      -8632.60754914
      -12251.59312498
      -11890.48434359
      -10621.71231221
      -11008.34750555
      -6757.15326182
      -10064.44224994
      -9065.13164959
      -9193.81043528
      -8916.36502108
      -5705.73770161
      -9491.68641607
      -9121.31542676
      -5209.23038261
      -7578.08164551
      -7331.79833044
      -6550.64962864
      -6783.74450840
      -4110.55755414
      -5970.63143915
      -5179.28362297
      -5120.46431846
      -4896.19791969
      -3057.96675194
      -4982.06506133
      -4546.84945048
      -2550.26746991
      -3511.29906687
      -3217.99909582
      -2679.72436754
      -2558.82848378
      -1453.39813102
      -1741.79749237
      -1285.49265138
      -981.40666252
      -640.87242256
      -353.04226138
      -209.96759878
      -11226.64335426
      -746.19555159
      2655.96579648
      614.34913143
      298.03438083
      174.55815274
      -2257.88890884
      2552.08840180
      -2983.65301626
      -1565.51936662
      822.32449395
      -4008.90216338
      -618.03990178
      -3061.83924780
      -5809.02856774
      -2724.53117059
      -8874.55979631
      -3023.71600500
      -5789.69085508
      -12364.14845300
      -3905.03410807
      -13793.44029797
      -6708.06238986
      -7159.28014232
      -10669.63591219
      -3194.10715901
      -9148.33887358
      -7568.33642738
      -2009.82171368
      -7668.62011735
      -3508.23605737
      -3733.07877234
      -7345.27800926
      -232.34351004
      -7035.11480992
      -2904.59884700
      -2729.29451952
      -5442.94999882
      -503.30525374
      -4958.57649302
      -4189.09290308
      -678.27912515
      -4670.88433354
      -1975.37560649
      -2266.88365115
      -4464.30150373
      -13.61478046
      -4223.74880539
      -1598.81293962
      -1568.14594970
      -2984.44950630
      -121.91974400
      -2755.96026822
      -1930.83355815
      -338.87847759
      -2187.28039373
      -811.21267636
      -1030.44715724
      -1626.69909317
      -1.76653592
      -1346.60229925
      -303.37425470
      -412.36095219
      -380.74190024
      73.00391138
      -337.59025255
      8483.82653315
      3385.65870170
      -2358.95683234
      -1286.17965581
      516.83630240
      -1743.40789045
      -1846.97023594
      -2946.76951842
      -1863.35555110
      -2793.09870603
      -5321.91772701
      -7149.00447722
      -4628.43160385
      -12198.08996681
      -14888.32480499
      -7400.85941528
      -18223.46507288
      -21247.24003596
      -20414.09960554
      -20872.41614710
      -12765.54513240
      -20223.99302158
      -19091.33671819
      -19225.80780168
      -16829.46478295
      -10785.44511315
      -14117.25797159
      -13050.78730930
      -9013.05281261
      -11315.08782059
      -11631.86871523
      -10073.37454343
      -9701.08353324
      -6566.02428238
      -8947.62737660
      -8298.19578413
      -9107.88216181
      -8162.81562471
      -5821.86107350
      -7778.92204848
      -7482.10189437
      -5481.07510447
      -6977.78375671
      -7191.54934884
      -6269.66985967
      -5975.79280115
      -3987.40953755
      -5320.11811226
      -4714.04902189
      -5089.87757881
      -4495.39025188
      -3085.91732825
      -4054.51294878
      -3753.87448471
      -2725.86708409
      -3251.54137015
      -3177.60752886
      -2645.93569630
      -2294.30326401
      -1362.41813866
      -1603.27758443
      -1134.40474500
      -1002.62603134
      -686.65706917
      -298.13933479
      -227.97407321
      -723.17058078
      2178.02558469
      -931.94156149
      1674.16949388
      3703.30532944
      4914.62351890
      -3151.78360884
      2522.51443821
      -3415.52275616
      3093.96474208
      2552.18200131
      -7498.71953255
      163.03602091
      -8492.03179183
      -11446.75477423
      -1896.76549474
      -18027.58312660
      -6837.55401991
      -9441.24200930
      -22454.61077918
      -2928.26184503
      -22660.24403845
      -9480.12777758
      -9449.26453108
      -16957.91058318
      -4755.96812859
      -12704.75274879
      -10966.04353815
      -3753.60011395
      -11221.47040447
      -4141.51579016
      -3690.15266686
      -10966.44131345
      -1034.86140086
      -10240.82888785
      -2464.08352641
      -3106.28174887
      -8127.91652361
      -1951.02657692
      -6747.08812424
      -5932.11294936
      -2032.64918999
      -6758.90824941
      -2311.07971119
      -2249.46929063
      -6660.86039367
      -605.17563936
      -6044.34294948
      -1262.49060477
      -1749.22190724
      -4435.38718241
      -982.10772253
      -3622.31372816
      -2777.83946112
      -1064.59445002
      -3068.46426335
      -974.58023581
      -1074.82806183
      -2501.63520066
      -222.55361932
      -1892.78555117
      -149.53666568
      -390.59401641
      -677.40823725
      34.56586180
      -418.59224349
      -2654.21104114
      118.80262701
      -3755.80303191
      -250.90989272
      -1467.99877474
      704.59152660
      -6318.34417990
      -3014.73885822
      -6002.73407283
      -2127.83602867
      -2103.09476313
      -10242.06746524
      -4592.76220030
      -7955.64445849
      -11642.05340031
      -5719.31476970
      -18981.58656713
      -9923.55876440
      -12087.84183307
      -24048.24664101
      -7264.58480179
      -24370.64756457
      -12179.58978766
      -13081.55037696
      -18789.07471831
      -7778.16528624
      -13159.24089888
      -11253.50437511
      -6609.38417573
      -13015.21518707
      -7068.74030805
      -6088.63783578
      -12553.84931514
      -4211.33996248
      -11734.70252095
      -4577.68884956
      -5776.82640024
      -9494.66812334
      -4022.91308371
      -7137.41912603
      -6122.74434696
      -3917.87909874
      -7952.38696039
      -4136.60577979
      -3828.82215638
      -7650.79420414
      -2519.08370401
      -6934.53803000
      -2477.38569896
      -3337.66852226
      -5188.14520761
      -2059.82140861
      -3858.55460697
      -2824.85137571
      -1956.88292132
      -3605.02577967
      -1649.69161581
      -1775.59441019
      -2850.46205997
      -860.89887320
      -2111.07470399
      -326.75589766
      -863.26476803
      -750.23192880
      -101.13306066
      -286.27558954
      8682.52834770
      3233.45189216
      -2905.10817671
      -1522.72967034
      -1304.67331094
      -4271.32853564
      -2153.09913302
      -4021.03767942
      -2928.76443531
      -5663.55919293
      -7417.06268823
      -6764.57896578
      -5953.20424880
      -10770.16891941
      -12988.72669599
      -8228.84043609
      -16849.19043784
      -21396.06759493
      -21659.68725047
      -19508.26838512
      -13215.85188740
      -19006.22125271
      -20187.29307332
      -20112.14082607
      -15876.27380645
      -10855.53420173
      -12908.96043063
      -11902.85379833
      -9225.83934933
      -10498.69833434
      -12638.77198423
      -11223.72267391
      -9320.59008757
      -7214.30164113
      -8427.53775573
      -9505.96814922
      -10020.30815438
      -7736.97258660
      -5908.60581326
      -6999.45737125
      -6714.67999286
      -5607.34763953
      -6386.53286198
      -7847.94231114
      -6975.75309591
      -5728.77134741
      -4363.72376156
      -4923.50587054
      -5460.24775336
      -5650.24347565
      -4280.54456492
      -3093.05216230
      -3604.33175657
      -3325.44744094
      -2765.43478441
      -2881.50516989
      -3443.49151149
      -2892.70824677
      -2234.62980795
      -1520.38090486
      -1384.71130442
      -1366.69852547
      -1201.62979308
      -693.80200695
      -268.60960797
      -192.88538909
      -12469.91543751
      -2975.44015444
      1621.65623197
      -2118.97516263
      434.67976613
      -2889.68226350
      -3479.40687455
      203.07886587
      -5526.15273421
      -3459.02376263
      -559.29564393
      -6190.11472728
      -1704.58226920
      -6353.92320560
      -8033.30493254
      -2704.34806090
      -8580.27480228
      -2170.00748001
      -5948.36236517
      -11128.21274378
      -5348.70408104
      -12599.95778013
      -7858.34885384
      -6318.96396905
      -10170.44179961
      -3619.18566825
      -9784.93362751
      -8520.39525245
      -2220.52825913
      -7384.08264727
      -3294.16345307
      -4500.94284669
      -7082.27070438
      -1754.78441676
      -6835.52611752
      -3929.67213221
      -2556.39986246
      -5338.02418630
      -1026.96569223
      -5483.36204902
      -4919.31440878
      -834.60151921
      -4432.61199164
      -1832.44812336
      -2625.28857151
      -4253.59604854
      -974.61185053
      -4075.97561392
      -2273.43891174
      -1431.60030941
      -2914.90523684
      -513.00530071
      -2938.22643695
      -2368.50742846
      -314.30674274
      -2016.32558900
      -756.16846911
      -989.53465928
      -1519.11831005
      -327.24743593
      -1293.62619317
      -694.92220823
      -353.28017591
      -453.99111159
      -71.71621782
      -238.52644021
      2855.24700568
      -26.96837484
      -3841.42282527
      -3069.54984486
      -2033.80320754
      -8116.19470310
      -3438.49909619
      -5299.38577777
      -4832.74828173
      -8426.16838045
      -8866.63764252
      -8025.38678888
      -6804.74840967
      -11305.85845621
      -13712.49904475
      -8326.42434539
      -14955.03067710
      -19417.24794405
      -20239.73176748
      -17792.04105208
      -12382.80424667
      -17369.93219845
      -19881.07737282
      -18046.18189321
      -14780.41675606
      -10301.21886752
      -12973.64209312
      -12459.35306712
      -8392.24980832
      -10130.56752489
      -11547.53670402
      -11174.29117715
      -8870.94155970
      -6812.25123385
      -8052.55002743
      -9664.00594019
      -9043.16814876
      -7151.25260923
      -5686.05424225
      -7122.16968182
      -7188.24495809
      -5052.98438654
      -6228.80595013
      -7125.09596982
      -6884.66532372
      -5430.35557317
      -4105.59365235
      -4721.39001922
      -5575.83981062
      -5039.12318731
      -3867.14202581
      -3050.22243283
      -3588.95403096
      -3662.37475689
      -2428.04372860
      -2905.05605807