<?xml version="1.0"?>
<VTKFile type= "UnstructuredGrid"  version= "0.1"  byte_order= "BigEndian">
<UnstructuredGrid>
<Piece NumberOfPoints="5123" NumberOfCells="5123">
<PointData Scalars="Pressure" Vectors="Velocity">
<DataArray type="Float32" Name="Pressures" format="ascii">
      389957.87797195
      -2462.46352454
      -6394.88919450
      -53269.49049536
      -17931.65899911
      29579.99432255
      4761.41983408
      20773.08456025
      52319.59434014
      -28083.97979548
      24357.52549310
      -10099.12279083
      27123.89408102
      20832.23895492
      -25333.86690242
      40965.39438087
      11067.79696447
      28523.12145376
      12282.76351873
      13370.66803619
      10634.96272913
      5561.48845703
      15981.38500415
      16062.57804869
      12447.82260498
      1872.46917482
      14980.01456209
      16285.51277292
      -1572.39638813
      10729.82587570
      16875.34927531
      116.35478279
      378.73831651
      7391.13948718
      1197.75976448
      5226.87125338
      6190.73189502
      2577.67101354
      12421.19983220
      3103.31066036
      2074.69325089
      9546.40957799
      5192.51558134
      2086.88818863
      13190.25826865
      7823.72737284
      -2960.96042867
      13760.84717836
      1247.95827083
      7719.62199961
      5620.78913736
      -1881.89621188
      4932.35581413
      5656.07770965
      -826.62324385
      3341.34021943
      2575.75794592
      3236.41389855
      1322.99314312
      -780.34232035
      178.50511681
      1420.00521690
      -587.71415156
      -343.06920647
      -195.08363597
      -269.09657282
      11519.42568088
      30778.36926330
      3986.63374799
      15813.82675734
      1644.99060807
      27648.18289248
      14776.20481123
      2242.37199348
      11606.32633988
      18958.91837752
      12366.73128879
      7218.43419248
      7684.59376292
      9039.95267559
      6722.23933684
      9254.45935186
      9437.38698878
      4464.95539239
      15221.75000031
      7754.47523251
      2987.58983140
      8065.18847125
      6244.39016060
      2989.30924955
      4686.55591710
      7247.89332947
      4908.40278973
      5429.52657943
      9030.51160646
      5889.38887098
      736.27815401
      6448.10895527
      5952.52039868
      1895.35840782
      2896.61675905
      3433.03884643
      189.00179933
      1201.73191373
      2207.19089263
      1135.72697144
      881.15229331
      -573.44555409
      3288.72365720
      3998.65889455
      -267.43286480
      3992.38897789
      -64.90372203
      -892.10641573
      6170.77783577
      874.16350475
      1563.42597053
      312.59109458
      -3018.54378629
      1148.23808814
      1034.12251375
      -3125.96656699
      2195.78391651
      1567.49757402
      439.05768557
      1431.69873213
      1129.69739646
      1734.86463393
      572.49721735
      285.63769237
      372.31685403
      -575.15130811
      -1957.99651341
      11742.12750102
      79732.25452900
      12868.63254249
      4195.16691202
      23695.53090212
      11834.12430169
      13386.11856821
      10540.54498259
      4247.13803678
      11693.69087880
      14223.35188619
      2486.42393453
      15322.22700061
      14970.11593341
      -265.82053339
      8033.73011633
      15686.09100622
      7478.43806792
      8663.10586221
      19550.82599239
      6327.60605604
      6626.55254180
      1462.05027985
      -894.82393703
      7056.62339120
      9920.77869200
      7217.98675168
      -83.21847652
      7423.79193007
      8819.02327030
      74.55454768
      7914.60503908
      5456.29720010
      2204.42369760
      495.57465512
      95.70022351
      418.04085546
      5378.50268280
      2967.25239328
      1245.88919858
      2762.77732320
      2907.37014917
      -876.94828384
      1069.48547517
      596.03859877
      3564.42360312
      4770.33322066
      -2225.39495707
      -125.34057449
      1341.70610041
      709.35666682
      4021.95769905
      2539.35050306
      187.31351933
      1285.70396241
      -612.93442313
      2272.31777799
      2070.65437782
      -440.44880820
      2858.23912181
      694.31799273
      -766.69915566
      2078.12872297
      -988.74408213
      -61.70455718
      11327.25320206
      -30078.17126578
      -4055.21707012
      19635.66502843
      15460.69437492
      3496.66559444
      29727.53545670
      14411.74117989
      22174.67621557
      17843.03539797
      8663.40921931
      18433.30160503
      9093.53187910
      11855.78247648
      18381.86648788
      9276.11430242
      13809.66181331
      14085.29690663
      8692.16010682
      6123.51107752
      9604.47433185
      4359.24115566
      4988.56289142
      11503.50959482
      815.45980333
      6672.02663822
      9633.27836298
      3155.96925216
      1268.52352295
      6647.61405750
      5468.22767243
      -772.57208880
      5966.35017769
      4554.31495238
      1227.06135538
      3505.58958085
      3671.42308166
      3744.42817386
      5372.01982229
      676.29338068
      1481.70405271
      3364.36728267
      420.66218509
      3504.65555484
      1313.14638001
      3443.75128200
      3645.93804004
      3019.79320630
      1746.86053892
      3175.06499214
      1341.30970893
      1330.15221541
      2249.15065311
      1661.26148419
      1422.63749917
      1912.09085171
      1295.09643798
      1929.36374530
      1956.52523816
      616.13472393
      1165.24790572
      176.91188067
      1222.01629745
      533.48565166
      -656.43926044
      703.90911483
      6445.49927116
      23461.16696826
      20952.30798194
      44566.05779061
      34193.60852369
      12322.52898672
      6634.24520673
      18007.22926409
      12935.70761884
      10944.92422899
      19658.54183989
      13558.90271893
      7542.84146709
      4185.43857317
      25904.76408417
      13467.03182653
      10564.37276730
      17888.56958649
      2008.64904674
      8415.49645659
      19581.19982423
      5682.20489063
      5317.68145731
      14749.85307746
      759.67777279
      10914.43111913
      6157.71904142
      970.78626319
      6811.54281646
      1496.86948902
      2667.41911773
      4619.34295148
      2606.22277460
      1476.71014380
      3232.69178322
      86.28064507
      6213.75070182
      7694.87799757
      -673.86262292
      5926.88596522
      711.02338087
      -866.64503974
      3707.19952972
      3274.33755340
      2575.39445014
      4484.05596302
      -686.91345154
      1180.17067335
      703.30064284
      -1009.71265230
      2166.86782549
      2.85601637
      -415.08485529
      1324.31487590
      328.00387740
      2636.36325437
      2214.71035535
      202.20707944
      1033.37703082
      164.15750104
      1441.29961736
      1252.73474035
      -22.23438666
      629.40769156
      -113.86969893
      -607.12641577
      31937.90943137
      54729.33211702
      21526.99210935
      59230.44640930
      59043.24071311
      16054.23295062
      4715.99637405
      29214.97196281
      14117.86979182
      8946.91873467
      14332.49330661
      21295.19191274
      7738.18884327
      6074.62198824
      11841.29786368
      15466.49685148
      7222.62741964
      13746.31817696
      7267.11342642
      12405.02856900
      15430.22112293
      1939.59100647
      4490.89691635
      5166.73602473
      9910.01296978
      12488.67236838
      5518.57277795
      4975.29926016
      6576.03271038
      1497.84793780
      8447.25225831
      6096.46536305
      3709.45417484
      5786.83868414
      4502.60354919
      5706.08689119
      4838.30244432
      -70.38977284
      9105.97779577
      3853.97892092
      806.07355093
      5041.10993312
      2450.91653832
      578.91557276
      5058.21493635
      1776.98156417
      2522.69484021
      3736.92259959
      3115.25545130
      2766.76305825
      2778.77493726
      1654.69160670
      3654.00900887
      2651.33501843
      1147.64884933
      2075.01100124
      1515.41619355
      2364.96611127
      1521.50322922
      1447.35825531
      1735.41089143
      249.53009056
      547.75789299
      1061.45122616
      -586.39240927
      -606.32305100
      6294.50841034
      -3959.74837826
      15748.16726538
      134112.01406501
      13172.11067703
      -1973.19821176
      20490.56518961
      9714.16052461
      19316.49955197
      28293.52828249
      5478.04962498
      26202.76044187
      13997.93308316
      3661.30683346
      12024.81390286
      12945.43264574
      6577.59708970
      15819.59374854
      10255.46701220
      12284.92619118
      9348.72335690
      -1892.25815392
      9643.62332767
      4326.12446781
      4724.19165944
      10675.60193617
      6248.45051920
      5730.57942411
      10467.59558127
      3324.52510547
      8930.23187147
      8009.76688342
      2902.29407041
      8549.56001789
      4372.69456094
      5148.45861527
      7101.04539713
      1798.89622441
      4579.13238194
      5246.28215380
      2892.38234377
      4312.50064461
      5077.78635771
      2062.69304036
      2879.52748108
      4101.67693071
      427.41641057
      2821.42169749
      2374.22768270
      1336.62992813
      2902.61649222
      1281.87891514
      2315.22678362
      2659.83482811
      1534.31713771
      2655.27149631
      1576.00068614
      1682.96692303
      1632.78143877
      -420.71689535
      1606.81665362
      1172.52634557
      15.22755634
      893.92906264
      -80.29448658
      -36.37002957
      -3498.65638890
      9744.22808198
      -5572.36010609
      463.81865504
      -2323.44961936
      2021.80528428
      4259.89328769
      3125.12506777
      24708.24216689
      23707.72656583
      4814.26905096
      20922.89202418
      11164.43031601
      729.94394286
      11498.26382441
      10874.14803626
      2971.24596742
      11422.71794994
      8508.62618922
      1070.19699252
      9418.95031008
      10849.89273194
      8172.69964389
      9235.29606226
      8217.92011501
      6441.05168377
      3263.41742424
      7546.67434010
      7938.05387844
      4629.80382943
      7608.28226596
      6012.26657507
      4427.01380819
      7746.56170393
      4054.99129717
      3528.90846286
      5732.61279187
      4549.25842613
      6593.38119333
      5424.09812872
      1040.59470702
      3816.52484974
      4279.68064558
      1439.93997358
      3531.72738408
      3395.40812417
      1070.43322794
      3381.78975423
      1508.33316478
      1627.81573584
      3457.12108125
      843.19364677
      2291.94699877
      2108.19110828
      223.05199678
      1171.62746694
      -117.76064660
      -264.05044551
      -74.92668077
      130.71508147
      -504.21520688
      -387.74870467
      143.80450952
      -195.96707874
      -968.32782379
      -141.06920120
      21358.82448829
      15245.63820194
      9329.32699833
      26610.77261383
      30919.53247729
      3506.36661207
      15761.33919465
      23970.19287263
      30960.01386695
      20365.32894392
      17361.66771731
      24319.28934855
      9643.56513709
      818.93882490
      10959.53702655
      13775.46760043
      11198.80942038
      6422.79714434
      1914.98912616
      6759.71280739
      9359.64545956
      1390.33437004
      10039.14898926
      9008.94283320
      7182.93181543
      11593.55396646
      4727.47739364
      5887.61575893
      9882.20368297
      1499.91024067
      9002.85889956
      5189.48089611
      1025.92299499
      7383.21667588
      3278.69751881
      1186.91266449
      7457.61161781
      2817.17426402
      4585.77375514
      4491.20562849
      -213.41864196
      5028.43662502
      2689.12239070
      -405.94276227
      3848.10226693
      3184.92569872
      441.79222507
      3429.75063796
      2752.82064205
      2688.05509162
      2719.81894814
      311.02099715
      3071.65679457
      3079.29107920
      741.51392405
      3211.70769685
      1398.98673565
      1339.80014495
      1598.23915231
      879.61644987
      965.57691849
      917.12506119
      363.99318352
      570.93984976
      39.29217953
      -175.03334091
      22957.93625299
      19780.36188268
      18222.58298960
      33365.36087162
      23352.68462916
      8542.08689015
      18167.88354896
      27907.69943986
      27563.65074413
      15706.26123306
      11147.60435717
      25752.95350038
      12549.65644309
      6699.36658420
      23562.91110686
      4166.96140940
      2252.80709297
      22248.01791009
      7889.60888605
      49.96508052
      17379.79284721
      7142.06042920
      9238.89722380
      14830.43965621
      3436.88443883
      11428.56221537
      2141.43892697
      7759.56924336
      10851.18618571
      1970.08031122
      6995.12154718
      7546.74058009
      3808.08178470
      7930.54632958
      5408.20867716
      -97.22781112
      7316.20798311
      5400.51277217
      1807.27054589
      2171.36759922
      3962.51353295
      347.64841877
      2373.03346736
      3292.48035744
      194.37222432
      2119.01564183
      441.88842795
      1540.89175703
      1801.02796755
      -585.25100655
      1787.43386306
      2081.09281625
      -636.44461292
      2070.14288688
      951.82566514
      1814.82141464
      1380.96787454
      515.34298899
      1802.79447120
      883.19762457
      421.10998954
      833.67774630
      443.98870628
      230.99901185
      -255.11870885
      -25.65086375
      14237.42591815
      30380.40967007
      13842.08612221
      27345.86237483
      18725.12461900
      1593.35966795
      14690.28475781
      18899.54359808
      22584.23816818
      14174.27271681
      9065.44233478
      15457.84602769
      10238.98801134
      10079.83502216
      7639.30589762
      8464.92236556
      7057.59000732
      11962.15840549
      5814.80734634
      4180.04889663
      7324.08783130
      4660.82939109
      9678.19400057
      5179.56781217
      5687.80939955
      8440.59093918
      5267.16944837
      6680.81916627
      9656.19530122
      914.02675163
      4968.47622815
      4849.77502971
      1974.12007752
      5394.57007670
      4815.14878531
      295.26795145
      5438.12273306
      4049.89075816
      5869.89350980
      4083.98559220
      3087.05869520
      4675.60938488
      3645.62440834
      2312.73290743
      4383.72791707
      2458.34162878
      113.30251729
      3392.45324308
      2475.01156485
      2392.08812031
      4380.70508269
      2437.79305166
      2310.28722251
      2911.21630580
      485.90362450
      2092.49388039
      1437.44072513
      400.10529929
      1645.10519772
      713.07516379
      -97.41121950
      591.62826393
      21.80115595
      579.79351386
      -364.06014466
      -296.54714257
      15550.27416452
      12869.00551200
      4157.83759775
      20728.92180886
      21949.46150936
      3001.31057332
      15542.86043045
      10930.56672076
      9369.90646919
      15337.57268079
      4493.25699455
      14466.11969573
      13907.71147531
      1209.86061476
      16478.00607642
      12366.62895782
      239.79879480
      9290.67713326
      10232.26124980
      13170.53999316
      8102.33446266
      6889.12844607
      12958.39619355
      4323.21389858
      6330.75304168
      10400.94102987
      163.12173629
      9189.19092067
      6888.06319379
      531.97189656
      7676.47490731
      7149.24181904
      2642.95689568
      1433.01251116
      5636.78185899
      3031.23267589
      3183.12263348
      1870.88332673
      3624.19225012
      7206.45946263
      4904.32456368
      2663.35276423
      4539.89648610
      2947.65711607
      3168.32408332
      4055.91069448
      496.66050813
      3388.68494922
      2934.22240019
      984.27774117
      3695.67666874
      1709.22144544
      2115.43809783
      2175.95487840
      -120.56049718
      2800.19964665
      1170.84234004
      569.87316140
      1889.96757450
      850.91622655
      1038.32315154
      569.52389189
      -50.81432549
      721.28791995
      253.63232883
      -248.35888963
      -11084.84439990
      297.78659032
      10856.02357842
      8059.01055795
      16768.91953053
      11046.14314008
      6952.66871589
      2777.19543199
      9979.99939811
      5807.17259608
      6236.98568749
      10043.08510013
      17446.52597398
      -4232.11940358
      12805.24162489
      6787.79265187
      1120.70749615
      7702.01533100
      6173.67231055
      11237.85916853
      5337.57278050
      6218.41262063
      10962.90468528
      3202.05485177
      7545.57508303
      10616.60485018
      1828.97764377
      7497.58743239
      6609.71943346
      1014.37812436
      6581.13695564
      4536.75658960
      972.25857244
      8119.10197057
      4358.91942155
      2369.39138214
      7392.97399549
      3030.34032823
      1416.66148937
      5960.75138755
      4077.30618379
      4120.23673246
      4542.73088435
      1728.19204349
      3053.66668828
      3109.63531038
      912.78611124
      2807.17663632
      1936.85144397
      667.39321536
      3251.47740511
      2412.99826609
      1299.99341450
      2166.31934653
      440.21178062
      -213.54847722
      -177.01491720
      106.01053826
      -384.24647130
      -70.58920583
      -536.19297081
      46.19112929
      286.13106768
      -208.74164272
      -355.42516131
      262.60303488
      22933.40344166
      11502.43296587
      9170.45368810
      23561.77786170
      12995.52868906
      1348.14262175
      10470.06180586
      9867.26055404
      13320.91495270
      14659.49318176
      4934.53614120
      19727.64516341
      13849.56593014
      5830.64670138
      7781.20450960
      7088.36054890
      5836.06961801
      14372.45248004
      -96.51836149
      3967.00020379
      6844.26352689
      7008.34471527
      6447.75890383
      7533.92339373
      1188.24525601
      5109.68663310
      5837.96966909
      2132.29117308
      5419.36363001
      3779.04813637
      3182.40429048
      2459.14570988
      4844.26169134
      4806.14000369
      6554.25580204
      1999.11264721
      4914.71470224
      2669.32608557
      2526.83353739
      3771.10488780
      1534.05893347
      3462.73321876
      3186.71291794
      -40.59582069
      3972.18278655
      3263.14928075
      -286.50561249
      2774.56500850
      2034.08901700
      665.24780121
      2337.35930384
      2150.32552502
      3535.95683260
      2766.37584695
      186.33185506
      1944.52480261
      1139.06702815
      1102.99295426
      1439.18041788
      698.98946100
      677.28633273
      893.69283044
      -111.60135331
      312.40538363
      402.71563468
      1.09729652
      6006.63555554
      18508.70508476
      9709.02346756
      15431.56781617
      11836.70076368
      8493.99998174
      11049.82851026
      6441.55411786
      14475.60643465
      13156.76717860
      2729.27992308
      14971.67106701
      11781.74059351
      1765.70194139
      13841.44123628
      12745.90147008
      3760.98210729
      11322.82072570
      5437.62124662
      7705.47206978
      7960.55722948
      10965.70533659
      8749.55832342
      9464.93451898
      1118.94188251
      7571.13335202
      4385.34220064
      5528.70053512
      5457.81775017
      2148.30430374
      7228.93955517
      6158.50314522
      4515.56548394
      1611.28521902
      2859.71066985
      1704.06212146
      4141.47716202
      3552.12342965
      2840.58941508
      5793.05275488
      5674.89181650
      1191.24381678
      2650.90701601
      3158.19081664
      -472.28362097
      2087.30383084
      1177.65603764
      1724.52595998
      2479.41309094
      538.00007129
      1384.57222246
      1226.41717057
      656.86309378
      2191.37798106
      1019.11473474
      1575.34522391
      1658.21954641
      576.88243517
      1442.96910640
      890.84628061
      444.55602150
      995.81071925
      241.99038112
      214.45024222
      192.11751231
      -150.78015983
      -1565.24649878
      16395.39427507
      7887.30224080
      18338.51529344
      18529.83138800
      12902.97251241
      6537.74139027
      4358.17963570
      10654.85646970
      16403.08762068
      6504.40267268
      10952.53553151
      13917.21316410
      1309.45738446
      10140.92407458
      12203.84613090
      9380.07568392
      5744.85257708
      8838.39115614
      9327.62804900
      119.67894151
      11944.67905355
      7809.06759251
      5012.07339034
      10128.17501854
      6093.25604592
      4280.42986800
      5364.03530844
      4813.38981205
      4297.26033114
      6835.37746026
      6938.39650089
      2154.29979050
      2910.77293487
      940.67312674
      3275.80868745
      3788.58837008
      4158.11231861
      -1197.28812048
      3729.11200009
      2945.80499101
      2478.85062843
      561.34104975
      1349.46334142
      4519.92816780
      3320.06654167
      954.87309451
      3405.45508141
      2601.23350688
      1110.37395168
      2445.63986827
      2442.86476814
      1913.02347691
      2567.68118144
      633.78861717
      1225.01545268
      1473.01297868
      531.16843813
      1010.55708824
      525.58897307
      -197.61325923
      814.48717048
      -363.41433137
      21.07107522
      155.01506250
      223.91293138
      5920.31566146
      10972.56193667
      19850.97314382
      16236.34983747
      13443.27999028
      17579.76834021
      14392.25857250
      10538.00175826
      15804.38709030
      9940.91061517
      6014.29797945
      10662.41407523
      3031.28481419
      16035.39255248
      10048.68237234
      7533.22256442
      9949.48279417
      8930.23991415
      13498.14494936
      9722.44013880
      956.59148861
      11292.09624967
      12318.32492280
      1138.68986656
      8590.55810885
      5170.39896884
      7091.88755225
      11308.48182890
      2498.42123174
      6806.60029944
      11799.06619167
      2916.94107158
      1218.25394959
      5914.57881541
      7196.86465739
      5455.25848045
      -272.93833740
      4984.76022455
      2776.58681651
      685.09593463
      3222.59431490
      971.37241348
      3814.96878164
      3314.38608419
      2648.40167596
      3640.61955960
      1824.99073626
      2114.17527545
      2779.95932725
      522.31866949
      1960.98840069
      606.98862910
      1788.30166313
      2539.35381008
      -442.38812424
      1840.34881875
      848.31521346
      167.42831160
      1483.06200096
      524.34545288
      389.53712722
      625.63369219
      -259.62334714
      543.39272877
      310.28085918
      25.10794577
      11672.91332090
      11970.75627816
      2644.85735371
      13776.38239773
      12435.85839354
      10357.01317956
      11468.12297624
      8090.26885472
      20535.65596091
      13460.45006221
      336.04514144
      9523.06503659
      4504.41313280
      8885.18823547
      9181.66770613
      11475.01992175
      12047.57646550
      8899.88658217
      14096.08397629
      5370.25804654
      517.15090828
      8251.87347751
      6632.10155290
      1207.81626983
      5676.65604998
      3211.44707497
      3367.93058874
      8888.06533969
      8187.48269801
      4153.94009136
      5902.43460023
      7345.38777773
      1825.29536908
      3373.86649807
      5291.81207997
      3738.09360709
      5521.72234132
      3036.22140708
      521.45364754
      3934.21915896
      3946.90334455
      421.95623728
      6994.20241176
      5972.02528658
      2530.29296294
      2693.95039142
      1513.44455455
      2065.72551554
      2719.33056319
      -96.24939760
      2370.32472604
      2365.51002705
      -1159.92490806
      1099.12792065
      456.25845453
      -134.70677605
      -23.54010954
      641.54218946
      -14.04159713
      36.50758001
      -348.90340535
      147.02948350
      469.23141690
      -169.72064236
      -119.32873143
      19.55607589
      13088.37381278
      17563.18947552
      1237.76889115
      11836.68273400
      6074.42485594
      3724.32242684
      497.28934006
      11855.42393027
      14753.09790745
      12213.82817547
      2173.08691005
      12461.77064897
      14275.83112129
      6630.52016645
      -346.69841631
      10922.11140870
      6470.16362732
      5113.25092057
      8545.05756199
      6534.98652059
      7543.88006956
      1596.41786278
      7449.30774085
      5909.78273357
      2110.06994359
      12659.94145465
      4039.55646596
      3357.99152609
      7833.00621536
      3263.52120978
      1685.22329236
      2967.17023543
      8422.19119227
      509.96135919
      134.27694888
      1186.30880630
      2216.23365754
      3722.32222994
      1871.66520619
      3251.25584791
      2204.16909170
      933.84782787
      2194.41383573
      1252.48104137
      2131.46812183
      3053.41059235
      -284.52630365
      3079.67693261
      2662.05461355
      166.96736201
      2668.20235722
      2073.36839479
      2365.56180873
      1676.13604555
      890.27752631
      1714.12331635
      752.55873119
      419.79566854
      1120.11194162
      845.48429698
      844.00085513
      498.76350427
      -50.28682045
      292.36967283
      371.84598805
      134.81283016
      19263.09587368
      26464.08599596
      17122.87819621
      9656.52686234
      17652.73840683
      7291.34483215
      12033.72842441
      14814.64154762
      12928.70472968
      8914.02382001
      3599.94270180
      9545.95113545
      16750.62918249
      7374.81729436
      15622.97926745
      14246.85563462
      7019.72538373
      7337.00191878
      10734.84020384
      11631.09981190
      13957.29750425
      8022.63522221
      8208.52854459
      6854.30486638
      6705.55458365
      8947.38261954
      5340.57976963
      1300.99534785
      3866.53677963
      1539.67865482
      7282.10282575
      7346.67951813
      3537.28384381
      3961.92630300
      3858.84568093
      3244.70533561
      4009.79790475
      2544.68821059
      2193.04239107
      4329.33454700
      2903.73838046
      -25.29517813
      3555.81395401
      4350.58690379
      -1137.88694325
      2367.30963056
      2334.81036470
      -358.26817668
      952.00982517
      2118.03096528
      1004.26572335
      262.41735203
      1540.40250487
      2346.18605881
      1000.33938761
      1269.54865001
      1648.16034127
      433.14998339
      691.68343258
      44.22278819
      798.54045923
      790.90057290
      -396.94638646
      749.68274272
      32.76234818
      148.66732692
      1675.75322533
      4218.32394319
      -2730.17925056
      13543.27449371
      7672.53778714
      15607.52387808
      16700.49416600
      -151.43173155
      10672.45196457
      16673.30634317
      10602.55769571
      7016.54463658
      -25.46821860
      9407.51088659
      5320.16253024
      10668.42297611
      11893.67909777
      4233.96776419
      -127.50026313
      7711.96959039
      8610.30448641
      5079.90352514
      9769.17085540
      6241.55735005
      3426.52227962
      7653.68384445
      9968.90320233
      1266.64917858
      6060.02230234
      8269.41308087
      1282.66759031
      2892.97581340
      730.28177977
      4235.13881959
      3771.97265241
      -810.83780346
      3575.50737811
      4846.25661464
      -806.51668608
      3028.64628193
      3504.42400692
      -83.44111278
      2642.73991569
      1791.72492339
      1825.93235132
      2957.41783203
      2047.97539949
      2248.86539606
      2245.00482031
      447.78916654
      2161.87283102
      2173.49244915
      135.77694050
      2103.61176715
      1615.20435727
      183.93660957
      968.61210254
      351.03288095
      357.91587959
      598.05714089
      -595.75275144
      -127.41335205
      22.80022386
      -256.06379360
      -60.45395709
      46.22132628
      10361.15674299
      9698.80584645
      6810.38668445
      11436.25108585
      9985.71048679
      21551.79060995
      11355.42593585
      4499.40409011
      11410.33751763
      16286.87608170
      13005.22805632
      2301.71725407
      8070.73227848
      12102.47626573
      9883.88561909
      8935.61651510
      13912.49270800
      6077.20053430
      8101.89879158
      7639.09722480
      9186.13529658
      1875.72130321
      7970.38247518
      4645.81721199
      1480.63862829
      7253.80163652
      2369.97012493
      3171.74208852
      7116.51236599
      2205.17167637
      1531.18561921
      5780.55265098
      4960.17769877
      787.15143514
      3186.06772814
      4627.39953251
      -705.91954066
      3865.24208643
      4434.75132094
      -776.81425787
      1441.41785334
      2250.03924358
      312.58148641
      1845.65683914
      1221.51037039
      2695.96768390
      1358.65187753
      1825.24684562
      1757.04214775
      64.05495468
      1844.75600124
      1555.49010275
      64.45570551
      2393.97280221
      947.00787598
      1176.87745642
      572.36724668
      -387.51615533
      954.91486637
      424.65441734
      547.47758165
      378.89001749
      354.20377547
      316.04643610
      417.54801965
      36.62979619
      18172.42723342
      13053.63937608
      3089.53360087
      9994.28787922
      13951.01088105
      5900.59331468
      5218.23196976
      8177.07720223
      12055.93970308
      10140.61812454
      2478.78890136
      11557.46930481
      8181.80822257
      8038.08780293
      5204.65127056
      4635.07055080
      10822.52822457
      8209.75456781
      1504.19223923
      6958.16206328
      8349.69363904
      4765.65062361
      10059.51026928
      4578.13418127
      3774.06336930
      7724.76795125
      5323.23991662
      5398.74807194
      3069.23300092