<?xml version="1.0"?>
<VTKFile type= "UnstructuredGrid"  version= "0.1"  byte_order= "BigEndian">
<UnstructuredGrid>
<Piece NumberOfPoints="5123" NumberOfCells="5123">
<PointData Scalars="Pressure" Vectors="Velocity">
<DataArray type="Float32" Name="Pressures" format="ascii">
      -2843.47813585
      4105.88712517
      2342.36012807
      -35561.77368429
      -25076.91863939
      9338.99356055
      -20482.92742986
      1403.04927893
      811.00042847
      -37979.07088609
      -691.60837902
      -24929.46055353
      630.47045492
      226.69341079
      -24289.64383439
      97.13355083
      -28172.76905675
      187.73549896
      -1122.41282859
      -19896.22698744
      51.60423395
      -511.74264546
      1623.60965512
      1212.59091118
      608.99758434
      -4330.78309609
      883.99295620
      -633.08163521
      -1276.45611364
      -320.87929552
      -986.45438691
      -1042.29831936
      535.74908053
      -157.59516142
      -1893.08676964
      518.71609511
      -2424.02148151
      1235.93031697
      562.83599591
      -215.79007419
      609.53790173
      -114.80995968
      711.04466405
      8.86503348
      -838.74726415
      -2194.67041951
      758.19574509
      439.98946365
      -1908.53652818
      -776.01560901
      1132.27926122
      699.70203294
      717.40434582
      -468.21671438
      393.05766755
      361.09946611
      85.59564563
      276.78819918
      6.02429464
      -339.81074965
      1354.79714008
      -1816.30033791
      883.06950751
      101.22201366
      -134.95052297
      142.51990280
      2327.00605687
      10103.31765691
      2995.47630911
      1832.08422210
      891.07324785
      4326.61542892
      1582.62363806
      3188.26931711
      1242.43304936
      1477.00860706
      793.43577986
      1488.77109744
      317.84504406
      791.97385922
      5.38246086
      2005.53930635
      2994.09847028
      853.46160514
      1924.44592208
      -5717.14218568
      -1062.35314321
      2413.42196169
      3261.28707019
      1769.67436758
      2571.97672539
      -19.82649943
      2304.85585800
      -8104.11313238
      4892.03531435
      -256.49444042
      802.11953682
      -1380.44974432
      2051.41275316
      5520.74403022
      2926.35140808
      -1590.48626646
      2073.95928691
      3815.46566221
      -1643.46875937
      -1369.09639663
      -721.11685922
      11.44268669
      -65.96761531
      -586.61412974
      -17.99982980
      1294.80830088
      702.47674987
      2813.08672266
      736.92989736
      588.74984047
      -1626.87309672
      -1157.00551716
      -752.42851154
      819.32112842
      -1043.59116780
      -1684.13015968
      -542.94014318
      -277.72786909
      759.25239007
      -476.24297839
      -830.26141843
      -598.94978950
      -140.97458420
      -2894.64192746
      132.28445749
      267.57349694
      859.97656759
      6340.39804277
      658.30085655
      1931.64766477
      5290.77157054
      729.37071358
      1137.00344590
      4500.86703997
      3883.58350131
      4449.05323168
      -1488.80321411
      3679.57625199
      1175.59028607
      2840.25984152
      5950.71210653
      2250.51472769
      793.03057083
      1987.01011141
      2396.19138495
      661.32191997
      -517.96421771
      3991.56968229
      -3478.14085556
      1036.27492969
      3271.66909860
      3106.81954240
      3858.33585255
      2884.35526617
      864.31306936
      -2087.80275216
      -812.41153240
      4624.89372180
      2890.44391356
      -366.16997109
      1142.17342515
      1155.86494350
      -423.33166840
      -1168.24328949
      -1158.46508256
      -4249.24536498
      2727.04191304
      -399.86452497
      1866.45655628
      229.84494499
      346.18651529
      -196.04833427
      989.22906473
      937.37593288
      -1177.22529319
      323.63990914
      -1115.99281222
      -1340.26654382
      -1448.24416836
      -189.55266168
      1057.90552868
      2703.31256568
      -383.83756972
      703.58934202
      -914.98783803
      -1351.53097685
      -524.48005320
      910.53879302
      -1409.94969338
      321.68185940
      -17.36125575
      308.86772087
      1979.51241258
      4730.54869055
      8811.64827256
      4300.90423437
      4177.57477626
      2139.53418622
      4406.07238320
      2791.13546046
      -2805.65380271
      1808.09608496
      660.03533193
      -769.53061122
      4727.63464588
      -408.73932387
      2636.72924755
      2378.75312373
      688.50829877
      784.46716245
      4584.81839971
      9242.28885492
      4619.56207027
      626.26900354
      644.10759443
      -3783.08350766
      4059.33320012
      -1043.88750648
      389.90371416
      663.88916049
      3671.66796028
      704.93737774
      3428.27164931
      1448.28285352
      -2096.23659728
      -631.67440878
      3883.84476210
      476.95653234
      3751.07818711
      1787.06892337
      761.24711032
      373.90177829
      -1863.51692463
      1340.85344413
      527.46560911
      -1109.02513389
      3059.95928641
      -222.61408353
      -389.41033750
      -393.91122402
      408.51474616
      -1036.07966933
      -1409.24292136
      969.15375036
      -3.91199495
      1106.94915173
      740.39819025
      2614.82129472
      -875.00362339
      -45.64632412
      1153.91807650
      819.02758326
      -759.89123575
      386.92084247
      -112.79813495
      679.21034009
      -329.88034628
      -605.56897265
      12188.34529392
      1208.07119214
      12620.49449620
      17353.90485845
      4566.94509390
      7463.33612874
      5842.36692507
      9468.05830137
      1714.41972759
      2549.43695118
      -675.58782114
      3000.69168872
      -5074.56599941
      -1801.38523142
      2169.37665726
      2413.12146693
      590.15577909
      1256.09336797
      2725.89912881
      1151.26017226
      866.41914301
      -272.10729785
      8712.28141027
      529.90021708
      1606.57086635
      1700.21976230
      1917.94012816
      -58.96121602
      3488.70558922
      5091.42236946
      3522.09738398
      -947.10908876
      367.51886461
      142.24504788
      918.19046653
      762.43767496
      3328.17535017
      482.83402848
      2831.03807505
      6109.26636121
      -2454.56865383
      1014.24538730
      -2460.11842191
      5089.34802958
      1152.34907438
      589.06128014
      4030.71934443
      -659.47893017
      835.19627339
      74.72643373
      -92.85682687
      763.30764912
      1607.91433795
      -537.95147126
      208.34994295
      870.37142031
      817.22405457
      623.91462337
      -342.25964282
      -375.45915318
      -74.05647211
      -449.12420061
      -47.95619421
      462.82091574
      -1708.98720308
      163.50784517
      -17305.06999468
      7929.89711655
      -70.17031554
      2236.38140177
      3679.11013307
      2757.38444247
      1845.58868645
      5092.10824087
      4815.19460655
      614.61891382
      3714.07748371
      5306.66235661
      6219.26290844
      2529.60181825
      5855.79059352
      2691.95346276
      5812.49014766
      1367.74545242
      885.63523166
      3238.85066128
      1649.28523491
      713.60086617
      -128.15606307
      2062.93662232
      402.24605989
      -2562.79772939
      3123.09551561
      1137.41181824
      888.31569261
      2106.77755313
      2952.05129499
      -1459.59193057
      -711.09775178
      5619.21982251
      -2131.56151943
      6477.24689932
      2997.87095505
      -3388.01312780
      4993.31372295
      3606.16275167
      -2451.36918423
      -3661.91640033
      902.76271055
      -933.75901087
      3832.58818379
      -1469.79061938
      1186.19639765
      2948.50882193
      584.48279814
      2246.76537879
      16.18677396
      -1873.42174193
      2839.46082396
      2274.27638634
      846.03789629
      -430.28021802
      1525.97370993
      987.99334960
      461.50039720
      212.77890669
      1495.57012056
      -189.35728590
      64.86420764
      -541.48379712
      183.29350794
      469.85334985
      -28807.02041058
      2472.87259717
      4936.29646287
      4505.95394738
      8097.22388874
      10454.66892470
      15128.21269309
      262.69910306
      13419.41414950
      5029.14872719
      2209.45519189
      2987.07424837
      3195.80113015
      2168.29612319
      -1936.31072455
      3289.15596083
      10286.52075767
      1212.41656266
      8927.90982041
      426.19776766
      258.52028690
      1587.25607174
      2636.32282683
      5440.62414903
      2854.24261703
      -687.78024883
      11981.68595630
      4875.87228313
      75.80821436
      -694.74338477
      10564.71048611
      -2177.91713284
      -1201.52782936
      2209.75470619
      -4608.09170671
      1370.58524867
      1670.94495892
      -1865.80760634
      2395.61456088
      3042.68219364
      1934.41878911
      3035.81944755
      3655.92162908
      -1316.18920338
      -28.70905145
      3201.10114922
      484.85432448
      3748.52994895
      823.21737298
      2059.85872686
      2231.34656896
      148.94060440
      2334.02284172
      825.16972571
      229.93729475
      1025.63686312
      773.19690291
      1907.01775890
      1635.71527711
      1038.01276217
      728.60971773
      1365.13677248
      -1595.04489658
      -633.81880442
      468.89775713
      435.29867523
      8329.65140962
      3101.47214007
      4894.70225240
      3336.76207221
      4412.37405103
      4742.24674191
      6388.38796099
      2434.36320226
      5448.41663459
      2683.24003066
      2541.44221138
      4194.99489873
      3213.04450964
      8065.46710368
      1686.51542155
      4869.63580192
      1886.02688145
      7752.71514452
      3007.42991538
      2578.79917239
      -6979.23607870
      2859.86612069
      2688.63964325
      1249.44769264
      3030.13074114
      303.45668888
      -1784.68585533
      1749.29928893
      -505.45846451
      1462.74063368
      462.86896819
      4092.61577326
      1263.04133828
      6422.49730031
      2162.53554177
      861.41793157
      3100.54671105
      3277.71497994
      25.99762017
      134.80885413
      89.03215740
      -2639.17739704
      -1326.21421751
      3738.99797462
      3374.04845908
      3328.52083993
      -3.05283132
      -741.66496541
      2420.54192011
      463.66175083
      872.20748034
      -105.57802104
      2248.50767730
      582.34371665
      1763.00436057
      1816.57015120
      -984.62120414
      2790.43445420
      162.91097406
      -555.67632489
      1589.78216445
      -752.55372454
      -2158.28576765
      -206.00806396
      315.19153107
      286.58698356
      -18063.76538625
      3695.36795784
      3923.80657775
      7318.02627387
      2501.35171394
      3071.42415680
      3741.70966728
      -806.05629014
      4398.17024923
      3537.65841424
      1617.06086945
      678.21432575
      1243.11243903
      1523.89332862
      2961.14777267
      4791.64426933
      3480.90191470
      1676.72396779
      1600.51821580
      2384.18237335
      3687.55406060
      -1000.92068556
      3465.42393646
      2301.12240909
      2456.17118880
      1923.91206306
      -46.60943192
      413.53098163
      -90.36835867
      2846.88338876
      4192.01069394
      159.62725592
      3442.44882502
      538.43652008
      1351.76883076
      1638.29106630
      3155.05285457
      435.82140983
      -3724.47065178
      951.80140846
      2474.28943477
      2863.24766462
      2769.74644222
      -1560.80212027
      -2922.73735831
      -73.55092575
      1889.03661711
      -372.65262024
      3126.67682890
      1369.72843408
      3643.11919017
      1790.68793196
      129.86128759
      5050.98453332
      1112.31913263
      1452.98426190
      1733.82662785
      1018.91118435
      1048.11577867
      1540.20487514
      -525.92506882
      1396.33934628
      -2726.42695872
      176.30921932
      803.75302316
      2146.82451053
      -35532.71009678
      4470.24125198
      8365.62621497
      8967.24872670
      7925.54149116
      4557.33272561
      5668.07040190
      3005.79891275
      1601.87024455
      8773.30539053
      3074.99256655
      -2068.96897670
      2147.32833621
      2226.35337523
      2569.88520966
      4500.35779022
      1752.57861814
      908.18136827
      1453.83950194
      5822.30844948
      5680.23166131
      2784.31697415
      7232.30509524
      6592.10243649
      1518.02157261
      1719.77175620
      -5366.51009076
      7139.05432852
      2334.91225497
      -2794.04171785
      3264.98266460
      297.70919833
      2540.66278022
      6055.36378700
      1905.52005154
      2168.78894766
      -461.34635154
      1594.44592665
      1047.88490860
      -927.55336051
      5122.64622499
      -461.31017928
      2941.80294940
      1315.20120449
      5943.24371527
      1058.04127429
      1655.05773542
      -1630.99726416
      4090.79655282
      3023.87806111
      1250.15453563
      -406.93344015
      2918.19428474
      1513.97543790
      2173.73342467
      690.39301654
      -1558.95011410
      2961.77773533
      1180.82352785
      2741.59427451
      -37.91484251
      2265.64510176
      1487.76640323
      -1306.95785248
      884.59288909
      -4123.06436837
      -32327.05726218
      4425.06157336
      7413.45976156
      12398.06473585
      1525.26031644
      2532.26928318
      4718.25491375
      6985.46975402
      1648.89395564
      2406.79771089
      2154.94263225
      -1171.27610517
      -657.07485251
      10297.98489494
      5288.20151068
      985.39600895
      663.85504254
      2920.22466634
      1758.58421012
      985.07746255
      -45.95403764
      951.35747691
      2157.02816840
      -4894.49293104
      1517.70701394
      49.44055545
      726.41642727
      402.27294992
      2287.32535907
      2164.21465687
      4345.88548021
      2569.88186043
      4067.63364715
      2104.05478041
      2590.56497414
      1508.91999345
      2485.99822972
      2389.72001330
      -1548.23709875
      1888.99553722
      3623.13568242
      1433.59547916
      542.10624167
      2851.99764209
      1146.27822524
      -846.13736027
      2109.69214968
      -0.08106240
      4681.83911892
      -10.70441976
      -2656.54310681
      2357.63999257
      2559.90654887
      3009.81128882
      139.62630407
      -1721.98747852
      1630.82885933
      385.07024247
      615.22400119
      1595.29275499
      1178.03048049
      2000.76849534
      1699.60051637
      286.49021704
      516.52411538
      477.98631818
      7291.11443515
      4997.58496765
      4392.70491745
      883.33857813
      2575.36817411
      1543.93562639
      4406.39592065
      3314.56120574
      3349.20402677
      834.98120353
      178.00806040
      3739.69528022
      1874.09022262
      6271.49597067
      9407.17104550
      3252.75845622
      -2229.10478415
      387.25843509
      1072.10987843
      -701.43690615
      3191.26382514
      2131.75131878
      6627.34087155
      1832.17536562
      1362.98922843
      3495.48427343
      -191.01340365
      3262.46781882
      -2519.00326028
      1105.01277056
      2228.42654119
      -193.51695829
      2173.05426684
      5962.81648429
      576.36243866
      -41.87883093
      2283.88843128
      1891.51214776
      2324.28220818
      -406.68894511
      2133.36810880
      2101.73905381
      868.47810809
      330.23498779
      -2233.67189470
      1807.85042654
      3602.39294166
      -501.51902128
      4884.77783608
      -4919.41454003
      -1123.07171278
      884.49828508
      731.38291415
      670.48521820
      -37.57064477
      2627.33129423
      -42.36122447
      2879.62615667
      -794.16672345
      991.76211308
      3727.60608978
      -2631.29139079
      -537.68348258
      1017.10163609
      1083.84408484
      230.88978546
      4735.95473259
      9738.20362835
      -614.45640167
      1874.52785770
      15856.90298214
      3157.46975092
      1342.27058210
      4155.61546992
      -608.42217051
      -1094.01660965
      629.48373209
      -1149.22394909
      1130.90308770
      3029.68409461
      -40.24048371
      3409.05324855
      2752.29411698
      510.82637229
      3314.43768316
      -988.62196259
      335.37706373
      10527.17839592
      7696.82174797
      530.86092369
      -4000.72650977
      1129.56316620
      -9.71715412
      2022.86780796
      6564.94467128
      1214.17771014
      5387.54356576
      -330.51917327
      5332.30427244
      -639.48839293
      5745.39299467
      -12.34359701
      -1273.80462509
      4237.17385866
      2172.13778774
      -2599.28997891
      3555.45809894
      3537.70943868
      2519.08940111
      -4374.36784617
      -3113.86596517
      -2955.82731063
      5189.47160275
      -1640.66978828
      -660.76265232
      745.52087780
      3667.84866910
      -108.02956737
      605.90622754
      601.22855466
      -1122.19530271
      2097.85638769
      294.08474871
      350.45744888
      -1382.87062772
      -331.55672405
      2594.89508085
      -1480.01099337
      -285.61114838
      31.65568686
      687.47224244
      1541.55288036
      1653.83257081
      4197.24552426
      6876.68483414
      4249.72798983
      1578.39692186
      4728.79919559
      658.61622590
      -855.47732668
      1975.15583703
      -40.21630643
      3564.04108989
      2739.93130216
      3454.35155240
      234.13556202
      776.04035469
      1510.97255889
      1273.38131192
      1921.37341490
      -1308.76135079
      1950.26414771
      1475.29527428
      1720.32370327
      6560.67460335
      1754.93191867
      -1911.20117032
      665.34191804
      -2615.80965969
      4577.31381044
      507.89209514
      -551.20877698
      -318.28579361
      4232.31874672
      7017.30421099
      -2438.67127267
      360.24069043
      89.13455513
      -821.23003705
      1299.85918602
      2088.29227294
      3250.57514961
      1575.13460749
      700.18794974
      358.75232541
      -2885.12554621
      3114.08790975
      2418.20524993
      -774.45905811
      835.08699727
      707.07821878
      1403.23272529
      2364.91686158
      -273.33525169
      3098.84433349
      -1053.73235953
      1534.37846913
      -55.06879839
      -98.92733805
      3968.50232909
      586.88502394
      118.91075391
      438.18150112
      -1912.08635387
      798.24560123
      696.81060405
      386.18113714
      381.30297281
      25054.63514249
      923.86374055
      10866.96397151
      4507.96534072
      1535.20342543
      4414.31558150
      5747.34786962
      4899.47756841
      556.14214817
      1334.49864368
      497.47284811
      1568.17121328
      709.09037305
      -3942.63513922
      1166.67710325
      -531.87480094
      1209.64350478
      4741.08613363
      3285.42215682
      2681.08978996
      2631.76506223
      2780.16648893
      1886.36782935
      1380.78814758
      1655.31679574
      2394.14781177
      1715.91898961
      2654.08455430
      -265.01838787
      796.32235536
      5285.66161048
      879.14783450
      -1118.47375228
      1342.42505592
      -1753.59620601
      2785.21202925
      380.54156541
      -879.82355440
      1110.82934978
      726.74941694
      181.91961687
      818.56703265
      -780.21112914
      2966.74042367
      -2882.40586778
      -2541.45133825
      1906.80915525
      1245.68422187
      1572.18029058
      -2296.91130154
      1074.10932909
      1503.78646704
      441.28686360
      698.30358946
      1151.35087890
      -1318.57813087
      -801.59807116
      1110.72800023
      1234.82230816
      1199.23764737
      994.96754913
      -433.42493902
      -409.78760410
      158.30312597
      67.24151051
      -400.66763615
      2742.69113100
      4560.51691960
      3875.03132830
      2808.34529858
      5880.56425283
      274.71578305
      1384.39184126
      3071.81005012
      4687.95615829
      1750.39062277
      418.13013334
      2297.75560642
      891.86015487
      2016.93375056
      -1744.40192596
      3015.83989544
      9274.83329509
      4338.04605006
      -10869.39086840
      -2765.35943047
      3466.99632428
      4294.87366225
      -2273.69853116
      -1918.47274355
      -2031.29722880
      1761.58512054
      -2361.38651895
      2839.38333053
      -2067.20168633
      303.40457263
      1708.51252778
      -1592.84413214
      -4300.88347106
      1721.39666476
      -1345.44702763
      -1164.75133953
      1692.91998410
      -519.33991687
      3120.21577425
      707.46044272
      1626.18618510
      2692.26279931
      -807.19441220
      4492.64120148
      1572.91908870
      -1806.23445323
      60.80011926
      -2719.36500893
      -330.90753626
      1040.58653406
      1309.81094285
      1128.23522148
      166.13005799
      -289.09846498
      711.69751907
      586.85637763
      1665.33962430
      442.16351246
      474.35861654
      922.55517128
      -141.62017708
      -45.26587252
      -129.15786698
      175.66593579
      366.07599839
      -107.43233648
      -3226.42185849
      -1156.52477120
      9261.96522456
      14291.28305318
      1623.45961069
      749.78676261
      1008.51388818
      2093.31625051
      2054.31789813
      5927.29146297
      2101.69091700
      2725.39860913
      16582.63862198
      2134.78043730
      -2804.63000290
      11574.00285569
      19741.04410296
      20159.85244943
      15138.20638775
      10532.62810467
      31280.59771782
      23333.75436392
      22318.93600951
      17610.08808587
      4639.66711272
      11872.80570443
      22173.34097200
      13641.31058945
      1522.48018540
      20538.68929177
      8714.55881484
      2277.56935280
      3274.13079738
      1374.25490195
      10783.09740692
      -1988.87810012
      -2070.92291181
      -4371.97274138
      -2899.46689426
      -4337.89744547
      -6350.73633124
      -256.34145806
      -4011.26253730
      2185.09555701
      -2337.48954213
      1219.18548092
      2771.68327551
      1092.04292885
      -2324.02198089
      565.54486980
      1712.20247941
      1162.88388246
      418.09000290
      202.28821220
      718.55303126
      904.39274873
      -460.31806588
      1771.45784799
      1210.88008850
      265.33862981
      -140.12540271
      500.21953766
      288.30233999
      799.18953579
      324.43479396
      -365.48875809
      7783.32999442
      5303.25602921
      5137.00401772
      5054.62633581
      3070.53853904
      -1285.48178383
      2151.60366952
      5538.50006839
      3972.99625942
      4568.94625052
      4897.88448546
      -2561.68720147
      -1179.68060684
      7466.52925098
      11846.01909495
      5781.44886891
      7067.91967186
      -1107.53320260
      8831.57438354
      1478.74109816
      -1539.94602985
      5325.93656373
      6409.29833368
      10624.77249860
      9560.96568717
      22741.34101561
      4812.95320732
      34801.97982271
      11751.41405492
      28490.40221188
      653.38399383
      5933.67629433
      12631.22922511
      9405.11134914
      6965.62677804
      9133.13663122
      9239.15334526
      1505.00371709
      3838.62401813
      -3029.84426010
      -4679.18360820
      -2689.08616979
      -2843.82123151
      -4605.54884417
      1567.82596639
      -3507.58455277
      -1531.94748427
      240.95281529
      -173.35250288
      2418.24253229
      296.01023688
      377.54213950
      -14.02248028
      430.14187312
      -549.02891748
      65.87065502
      134.84625312
      1046.45855423
      -1727.57820988
      -1921.09793117
      -556.15315836
      149.07887656
      -402.31690251
      -107.04059111
      -273.52501164
      309.27671122
      8048.01938998
      9874.54103510
      6402.15408610
      3995.08990030
      9244.51022603
      3317.58175247
      -3105.08977919
      2539.21534511
      -4091.12484040
      3535.97139116
      6041.43333426
      8413.36589254
      7320.60467022
      4845.80059709
      7526.40249302
      8627.71523669
      15582.06649602
      -1543.23586669
      9385.95365917
      4256.64636421
      819.38452072
      -7993.28144983
      -7204.08369672
      2849.60158476
      -2482.17226845
      3263.53040956
      8585.80370862
      12000.14174572
      -13864.37157267
      14985.87820938
      -5248.81608206
      10183.47777620
      4772.86216496
      -6434.30943684
      1069.89296081
      4483.52231583
      10525.78295798
      7252.59424068
      2193.03603742
      4541.97339552
      8086.94330616
      7680.99850773
      4550.45409824
      483.92921380
      8709.15720977
      1772.98628591
      2376.79811082
      -3964.91887339
      -2336.83990071
      -1226.48578066
      -1418.14796373
      -417.97587504
      2528.23593553
      1321.49106552
      1796.93659735
      -420.11819818
      1055.55067434
      -1083.77141717
      -868.54463851
      1058.51317445
      230.90453367
      -293.41651645
      864.48665581
      968.26446890
      622.44389699
      -1470.06403934
      6178.00187866
      6455.69746309
      5819.08891334
      14474.71510646
      4640.39464977
      4810.16649592
      -1344.17349711
      -552.91529219
      1425.34967817
      -3670.05326843
      3251.16727665
      9168.24868563
      -7708.97442152
      4124.70811367
      17415.19207335
      6986.51966995
      21335.13169908
      10609.03921635
      18500.60335499
      73.87335957
      3865.03762075
      23231.16856746
      7851.41084237
      4361.93238913
      17594.12431652
      -9755.28751899
      18001.39025644
      21160.15788215
      10740.98968819
      14080.63649466
      5694.33978883
      7187.62704920
      5806.40104529
      19629.21847976
      8097.34184896
      28518.40496037
      10076.79055818
      16336.31748056
      15058.65787787
      1183.74470375
      -7412.68535010
      1072.63179387
      3537.44598760
      -1378.31217577
      889.21874111
      13599.92497958
      766.89137701
      3792.52620735
      -2882.05457211
      -5672.54536235
      -3938.93040247
      -3848.76466641
      -2814.30581217
      -736.93261520
      -476.19049450
      115.07163930
      -183.10338556
      1568.73603090
      585.21029210
      2670.83594701
      -128.81571399
      -805.33647214
      -119.64256930
      205.38173370
      96.30712231
      -187.12683059
      -6501.56405975
      4895.85275929
      178.03866017
      3738.68112256
      5697.88325534
      7602.66702071
      6952.47815071
      12351.17859753
      4790.63518645
      10337.25985906
      27064.78869872
      6857.77291620
      9255.15372026
      9431.53132114
      -4113.71371836
      43089.24601731
      -28572.85647480
      24022.80339046
      -221.37527552
      2301.42768948
      9769.92872005
      16135.66391585
      6748.06490316
      15234.40265430
      20935.16856546
      20075.56788477
      3408.17231469
      7489.46695986
      15827.54525851
      15586.53004523
      12510.22249547
      15150.18196254
      9524.93378654
      12548.06891431
      18620.99791506
      9431.43893547
      14737.57870059
      7039.78807310
      14569.51589809
      7862.02299760
      10368.14566811
      8511.82544615
      14733.32001644
      2741.76918346
      5402.70591895
      4658.28575000
      10625.32232093
      6252.01982052
      21580.20346446
      3018.35775325
      6231.33348737
      -2800.88368595
      -4453.57332885
      -705.58822962
      64.20576547
      -1605.23508900
      -321.24464147
      1548.74971975
      -413.10383340
      466.58794051
      -544.21848918
      -889.43343754
      215.37166592
      640.42281213
      389.76649863
      -62.87498225
      -19965.59071168
      5166.44742830
      2179.08551236
      284.81855883
      -3099.14763407
      369.41305327
      14164.65298338
      -8292.48610138
      -2398.36074733
      -8721.97794194
      -5380.36454237
      25796.51506217
      -11469.19113140
      -4232.43817863
      -18526.42343339
      26142.63603643
      646.58390910
      22982.41449757
      6011.61090399
      -2240.02479832
      -704.74729966
      16828.00566357
      -901.34255830
      357.25985493
      -1157.68895916
      539.68337652
      13509.97067444
      1063.33717408
      14022.30588453
      -9485.22894426
      -2914.59984274
      -1136.40115147
      8443.78655910
      1125.84431370
      18377.18173959
      5956.34379194
      3721.99175200
      7707.87815417
      -2044.97933987
      17679.00005094
      980.27952830
      11951.60601299
      -2964.89288989
      -15.47745380
      4509.00053685
      5689.64744731
      15421.70450459
      9536.41654082
      5277.13922816
      5073.85092407
      14812.73799962
      23768.82754157
      7828.64377546
      3364.80207936
      6777.12630982
      -7319.61906406
      -2100.77713641
      -3944.90043751
      -1205.17374255
      -1571.84464241
      -327.33358166
      492.98734728
      979.10770710
      -127.94177726
      -803.12204255
      -742.33594870
      -20679.69231914
      2689.63348725
      2460.33230649
      2949.10899335
      -6490.14237165
      131.92285478
      -5601.85096176
      -3164.94168092
      13800.49424367
      -3779.30265910
      -4173.15178658
      -9048.70291444
      65840.99613443
      7829.10278803
      -5572.94543745
      1781.32888543
      3265.71781939
      2695.59778848
      9921.28081580
      14442.08224880
      5862.82576435
      5368.61547565
      -89.19392418
      -1194.02489701
      -1200.28873762
      507.59535774
      8049.29219883
      -154.55276458
      -462.52792137
      -585.17822402
      -686.24852094
      3047.10345622
      -765.45539117