<?xml version="1.0"?>
<VTKFile type= "UnstructuredGrid"  version= "0.1"  byte_order= "BigEndian">
<UnstructuredGrid>
<Piece NumberOfPoints="5123" NumberOfCells="5123">
<PointData Scalars="Pressure" Vectors="Velocity">
<DataArray type="Float32" Name="Pressures" format="ascii">
      -1407.37493737
      3880.44740094
      3251.07558993
      -35561.77368429
      -25076.91863939
      6626.47986687
      -20482.92742986
      1386.46002762
      -55.16560215
      -37979.07088609
      1590.62637542
      -24929.46055353
      -425.88578150
      3721.95692748
      -24289.64383439
      -1033.14810369
      -28172.76905675
      -243.88466622
      -794.45849094
      -19896.22698744
      1052.31212283
      1043.06058106
      1559.52569440
      -492.03528870
      -646.36493978
      -1498.33865439
      319.08098497
      -907.54847795
      186.45971447
      -361.66716132
      -137.56593193
      877.84640111
      163.60639499
      1507.73855049
      623.17136555
      -258.28851328
      270.66976537
      218.75194525
      957.80353459
      969.89398393
      -406.57462226
      495.43207575
      230.46620188
      334.73889714
      150.85755932
      -702.36226646
      -54.24743257
      595.24126315
      -367.59532266
      15.32316657
      -1288.85972701
      686.90044483
      -308.76816414
      -1211.34485107
      -400.78563602
      -186.69365791
      -705.78355805
      115.27303972
      465.93153677
      121.02006966
      242.22005987
      215.02142773
      -430.82025426
      1204.12278653
      -206.05624015
      198.23337080
      1629.11929523
      9275.69569621
      2855.81704205
      2477.51148180
      92.44032336
      2284.87833306
      675.46927679
      662.72424207
      350.99701688
      2324.60980600
      1190.23181658
      -522.70723503
      72.00007033
      1231.78642012
      1195.38377405
      2063.40481257
      2994.09847028
      468.80915173
      2255.98950150
      -4402.07032726
      3082.55674852
      -272.75276329
      3074.99060278
      -2362.59287058
      5945.66415772
      -52.87170348
      1899.02085512
      -14579.45302809
      5631.90452035
      196.38705722
      4400.22818927
      -1836.20572119
      2807.63325165
      3484.25607111
      2165.29423217
      1091.96084049
      -380.87519840
      2918.43773941
      -1528.18213160
      944.09244498
      229.07419469
      -587.64382477
      81.34452318
      -415.06063727
      332.22956129
      1111.78217399
      181.02060324
      1446.18200389
      -214.43214992
      861.12116226
      153.99052687
      505.95921876
      533.67897046
      -2.83583998
      -702.85056802
      315.79158394
      -958.83279627
      38.81845593
      -33.65141808
      -73.81780426
      577.61862942
      624.26458001
      -269.59673650
      1725.30189117
      128.95640427
      2660.68360399
      4321.90300711
      1784.88849790
      1721.42709869
      3221.68048175
      4901.68511443
      3320.41817645
      1883.61998944
      2286.84715727
      3108.60480222
      1785.35381561
      -428.49729582
      1963.19718203
      2075.34815748
      1579.14785708
      4747.50432356
      1668.61654427
      4040.21428024
      4584.55408153
      -1000.28838377
      1941.86423802
      585.76388578
      5354.47545614
      -12865.31851771
      1936.35183518
      227.78979493
      590.36219627
      9490.14453197
      2943.02724877
      2178.62736517
      -763.43022775
      -437.38034383
      7695.79908091
      7234.78432562
      947.35729205
      1441.98608330
      1044.39480210
      -324.04683903
      1742.45830285
      1276.15231834
      -1798.65600908
      1101.34939270
      969.46982333
      1214.46667155
      1319.84942382
      -549.41023434
      -2873.65063715
      2656.56007059
      3320.47971313
      -4653.68360069
      -436.11500975
      -1239.03494352
      -931.21550855
      -1792.92995636
      2101.46545838
      914.74312660
      2580.85819919
      179.97778689
      -100.62713212
      -274.44834774
      -178.75807120
      -353.48145943
      623.58916625
      664.40409350
      -230.70639140
      -1442.07770346
      662.30690265
      3229.55972004
      5968.04540625
      4641.95959893
      4117.97719831
      1263.01843927
      2373.70550232
      3412.38978727
      2152.73935883
      586.57418560
      693.70218001
      1967.24572287
      2982.72285594
      2221.94987540
      2317.41561926
      5377.26419482
      2555.82946808
      5981.20040485
      1653.96038103
      2566.46959457
      9722.41994889
      3885.67867730
      5270.58690805
      1909.96841438
      -1425.17182938
      541.02780706
      -1360.72888268
      2553.82816798
      2281.12940568
      3557.71370277
      2377.63669071
      3472.13613811
      -536.37167399
      1344.83686537
      -795.30040911
      1580.49103038
      596.41409967
      2151.78677558
      1744.69807422
      342.68345819
      -945.58175085
      315.96420586
      939.75029301
      1515.87712722
      -471.57733376
      4796.88191540
      -2345.37261668
      14.25169962
      1241.06646923
      1026.25697315
      206.99537227
      -3.64849679
      1191.47366555
      -758.79133402
      282.68157048
      1056.06514036
      1288.22583429
      817.58483496
      318.73945553
      293.42139332
      380.83357240
      -432.17042962
      359.24409402
      480.23497189
      1295.02642775
      1522.29965422
      -116.70052019
      12526.96289581
      -864.36280256
      6366.18847763
      16862.05920547
      4045.97397931
      5580.84435720
      5670.78548104
      3010.96274185
      1109.25572683
      1652.50802727
      1557.44653785
      1292.29412464
      -2615.84690492
      27.52481965
      5178.63698807
      1284.96631103
      1568.41275909
      1274.21098106
      3192.18043421
      1595.92100053
      2344.95138770
      1218.32188697
      2864.32104553
      -107.58737401
      6138.96849213
      2567.43138853
      1864.18324552
      1068.85277788
      1628.33040083
      2772.16370890
      1386.86871837
      -363.54167275
      451.50423463
      268.30266754
      894.64646499
      560.70288694
      1220.18641528
      2614.58726965
      3696.77979330
      3143.21856444
      492.71336012
      1116.04973733
      766.76078596
      6024.96372069
      614.79741618
      3885.24091372
      2405.03541303
      -1.40276441
      604.86372508
      -1392.30041750
      553.55589909
      846.55842071
      689.63112922
      2163.08645321
      -713.58926721
      827.64688644
      3777.91955135
      2122.03500517
      1338.84972733
      302.69391985
      164.36785945
      1197.28115065
      -1278.83758677
      47.78378025
      -49.94870141
      2812.55594446
      -17305.06999468
      6186.08794370
      3073.24897048
      4458.08392781
      2325.09309740
      3801.01010720
      2076.14989355
      5560.44980721
      6544.77549703
      2560.75909141
      4774.60298080
      4050.32932254
      4066.05033586
      2481.96199539
      7237.40348656
      2418.93969309
      4608.12985091
      1855.95545832
      503.40862775
      211.30807339
      -1007.94359928
      -262.19981245
      -241.66987964
      1545.69364281
      2108.68068176
      -4487.10771555
      4701.97788472
      -1245.81750809
      1239.37063327
      6509.07808323
      2909.63277855
      682.40048949
      -472.33056051
      3067.74746277
      -2932.16746813
      4813.57959799
      2280.52095760
      -2300.44256881
      6906.93391252
      2025.24400190
      1363.65490222
      -3751.62606627
      6067.55809872
      -2952.30219585
      3495.85474544
      -177.80924499
      4163.78264786
      6037.21049555
      1708.23013622
      2973.43888311
      -1084.34948777
      -2612.11640960
      1706.84059478
      591.45030993
      2204.73662437
      2263.28862362
      1207.39875089
      1058.47813038
      1394.11498861
      2475.89456724
      1816.68622040
      -511.48307530
      -636.43503553
      125.42923509
      -604.57920458
      -587.07836794
      -28807.02041058
      2993.96787959
      6512.54955070
      4490.18270438
      21651.59177086
      9160.71314751
      11938.38416309
      1825.56616310
      10902.12284866
      2308.07658009
      2575.04928065
      2575.72493761
      2875.76000467
      1077.12039035
      3990.39344960
      2136.85785739
      6202.45812117
      -364.49527611
      6108.61830628
      2529.03313639
      1602.07631014
      5743.91515579
      2946.64022810
      4268.12190619
      1474.54517960
      1867.77146872
      8656.53251717
      -760.20775334
      -285.70279035
      1230.66776119
      6941.20507749
      732.48323121
      1138.57221279
      980.54224310
      -4989.04001999
      2400.01466633
      -938.39196544
      -2881.54905282
      6116.53187005
      2290.46967694
      585.49479501
      3052.08718331
      6682.39250184
      -3601.67051560
      -2770.23656682
      2167.06435783
      1232.05987343
      4076.09028030
      1943.41127039
      6022.18687162
      1703.58414084
      142.98957791
      5789.57806352
      -1301.58595030
      1300.91663360
      1632.93743991
      -1297.66115304
      797.99850473
      1503.09316729
      462.70057208
      -167.38526934
      -1805.54795701
      -2614.13441370
      -403.29681365
      -1997.09809518
      -2297.97714604
      8984.20683306
      5058.36752179
      5033.68460214
      1749.51245551
      3337.38349907
      3304.38834992
      5740.11573388
      1930.15567056
      1504.92504807
      2811.47476035
      1436.04046709
      -411.66581202
      427.37938848
      4217.61765581
      4377.85804527
      4685.59046527
      10829.09694332
      5375.80870209
      2863.49159537
      3000.67093346
      1084.24520498
      3578.35754139
      3056.09730848
      543.94888385
      3012.77663010
      4091.73617574
      1685.67655554
      3881.41952779
      4262.48350341
      -1290.34563871
      4183.40024427
      5978.28593314
      1013.42656128
      127.07632002
      1425.64292959
      -81.13380834
      4103.49909574
      2273.60878846
      1669.47716457
      7024.43112683
      3229.99123960
      334.62598764
      -718.61165829
      1042.58495679
      3040.83541714
      2462.01294620
      2030.48927665
      -3359.71723443
      1285.09262734
      1645.69760894
      3803.65357018
      2150.42367896
      4272.85826786
      276.36802627
      377.23225237
      -237.67288059
      1134.22965551
      2838.72111800
      3458.51788974
      -385.00174261
      2345.74077247
      495.64556257
      -3753.56789691
      -1871.70524157
      -579.67826988
      -271.97683778
      -18063.76538625
      3196.14518917
      2758.07940258
      5246.48570160
      3693.34284908
      3107.51940521
      3492.11399789
      1753.25669110
      3931.58226363
      5686.81034404
      2565.79525230
      1319.55320681
      4782.39293569
      1218.10905361
      2846.22316816
      6089.87355924
      5924.32527923
      1234.26959686
      2127.20912327
      2502.44567831
      2337.92665650
      5026.35206629
      2917.73201100
      1624.96918432
      1245.11395926
      1649.06108353
      1760.79507055
      2667.92351755
      995.13817527
      2773.92731618
      3789.64653591
      -1057.45053045
      1112.45191268
      2845.75962304
      1020.07221379
      -2283.44944532
      4574.19520874
      2530.40893416
      -2041.55627628
      3063.65504858
      932.27529991
      1929.76658829
      2056.26856719
      -2473.26290993
      657.28670774
      -1751.65851924
      923.68352394
      2099.14484569
      2733.90514360
      1119.16240224
      2441.66199081
      185.25638078
      316.98368505
      608.70868583
      -2037.16284436
      1272.22778920
      1257.51745539
      595.59516418
      2181.00376247
      1420.20164513
      -1001.88796215
      1428.93487086
      -4903.08517985
      -1346.92364020
      1048.53929223
      765.18816673
      -35532.71009678
      2681.36296209
      6406.79210454
      7882.81960198
      3786.65759198
      6710.30419898
      -1105.65062966
      986.43415306
      2656.06980175
      6841.00139949
      3333.36651247
      4862.85204359
      2732.17893182
      3009.99887849
      3660.00085532
      6483.77179712
      -2876.95049725
      -2398.65336596
      1636.68467627
      7498.74464744
      3288.31807913
      2700.18219421
      1038.76365703
      11524.49453374
      364.23362989
      1077.76015424
      -6416.06511469
      4336.67022755
      5311.86560962
      -3245.52972528
      3426.60131761
      562.26054640
      -778.46898931
      14337.04411021
      1574.83159974
      3365.69572601
      -3111.13259810
      329.89342312
      900.80963878
      28.60830585
      3828.13191662
      -1481.51423548
      2379.51608757
      682.93178698
      3356.35025849
      2542.15810657
      -341.37296386
      -573.93846502
      -137.01330959
      3140.74598869
      2675.04441819
      -1887.55142320
      1828.16284157
      394.11388515
      2922.42817839
      -567.25018929
      -1132.50794792
      2062.06438650
      3359.47442712
      -1419.32333025
      1456.56553191
      3160.13084014
      307.72867326
      -708.04310984
      1472.56448333
      702.34326522
      -32327.05726218
      5677.77723545
      5789.35867121
      5264.11072473
      -118.83486341
      2014.13961820
      3476.30287270
      7542.84452860
      2284.68374039
      828.25056015
      3063.33076178
      -2394.96857399
      2299.04545884
      10366.07943950
      -2713.07941262
      2925.79283606
      -1906.82949356
      2472.61599787
      2234.69826860
      593.14780806
      2008.86813731
      562.90749352
      294.93267705
      5700.90923336
      2706.12441569
      2506.30009093
      2210.87078678
      -598.04987023
      4292.30846303
      5073.64056409
      4404.74701218
      -541.77597742
      4936.27655933
      2788.95133013
      -399.81698748
      5155.36244967
      1928.95531886
      380.09068631
      -1658.46920178
      613.86530651
      7421.75082866
      -2191.27665506
      -1014.01197456
      4895.78956985
      405.61286125
      -1034.86220011
      2634.55732212
      -1321.54407969
      4075.10137280
      520.57846876
      -3398.34927499
      667.46311402
      269.91599266
      5415.55420128
      -3332.87031968
      -1044.14474152
      1804.56305216
      -1495.08435443
      1376.73979289
      1206.87714040
      1296.81758716
      423.36325307
      -228.43401048
      -1722.17623717
      -462.88527927
      -242.81747396
      4784.99663257
      6613.44970936
      6422.41929719
      3568.83381606
      5872.05336192
      5915.23082007
      6230.27028829
      3160.93238065
      415.05549388
      1212.52327739
      2938.58629108
      4963.48436966
      5818.82246426
      1973.21575982
      9452.11262441
      -708.08646175
      197.63732263
      578.21384184
      2117.41008457
      5837.51618065
      3162.50960447
      2538.67475533
      7247.84432594
      882.44909547
      2297.02441675
      6206.46157460
      613.01222583
      -1150.32975158
      -3356.67097360
      1262.86559367
      1417.66633636
      -3771.33656797
      2500.37264992
      5779.31721036
      2172.68820527
      268.34131055
      4615.42934334
      1573.75980590
      2147.76510892
      4436.46170157
      4185.57194098
      288.91241350
      2670.86821049
      31.92008699
      1478.27779420
      -225.08974324
      223.01007288
      2315.01138383
      2941.53159699
      2430.24766544
      3193.75445263
      -519.45810401
      1433.67596566
      681.51848468
      54.07096408
      779.72548661
      -545.91530437
      1884.40855400
      -158.31960162
      485.21057903
      3492.66805268
      -1445.77110774
      649.12381090
      -1691.87379770
      625.19137667
      -527.23497424
      4357.52009884
      16109.46963653
      4030.45550574
      6091.99020725
      14758.36253207
      12006.60532779
      4364.74920753
      -14.68880517
      2416.53736846
      -1401.06530970
      1724.47139601
      38.16585644
      2370.89090981
      1271.95138501
      2071.03819463
      1425.22279239
      6296.85009709
      2613.63399175
      5332.58797537
      -645.61329717
      -3580.47104527
      14786.61588615
      6458.97168773
      -3212.18977003
      -2554.87048087
      -277.16080195
      351.58604885
      2890.78364950
      7273.71916316
      -2364.07179755
      3232.09866042
      -492.28133240
      3016.26890565
      290.92977263
      8027.56116260
      -51.32898275
      1291.23884975
      3935.48070348
      2645.10918994
      -135.46383546
      2603.80150627
      2490.94280681
      2631.07568336
      -80.12723424
      2384.06902860
      -3641.40464218
      1792.29544720
      511.63820822
      -2186.56099950
      -4803.78633146
      -2482.09002634
      -1230.67329519
      165.39241603
      1783.31146614
      -667.56255878
      2840.95419870
      564.60519427
      936.75079884
      -2219.40063842
      787.85459410
      894.02620950
      -698.69868629
      -154.15644195
      415.86696414
      -162.96335672
      1607.59104118
      3372.72142015
      5321.15852540
      22437.76942937
      9993.80413788
      -1324.76556838
      5018.90812734
      -4059.46266476
      1639.92210388
      2507.78863941
      937.85056788
      3750.28372576
      1869.62790877
      2775.99855550
      -742.15476265
      3501.98130471
      2573.29120975
      506.76010367
      2625.39902615
      218.95793016
      -1237.73968551
      2669.80323849
      1189.73913588
      7885.30129983
      5189.26156897
      1926.64216817
      407.05526069
      2664.52746700
      132.54021999
      1026.39525229
      -127.82414457
      1599.40648192
      2114.45677181
      2174.55335720
      3033.22397531
      -515.09322391
      804.91006644
      1234.92582318
      2087.54268235
      604.36760026
      3887.79071592
      558.37976205
      1133.98002321
      -1366.97493216
      -4292.42600272
      1167.77440885
      1310.09802728
      -628.88790672
      -8.62259563
      1737.63651710
      306.97768788
      1587.07909515
      -193.70687350
      2513.00368705
      1080.22487529
      -222.31720168
      -658.50475668
      706.66992558
      3088.59809337
      2340.21808260
      -672.83793611
      -2772.38977615
      -3474.86176649
      1727.36524881
      1448.05677291
      1473.75424287
      614.26068288
      13308.07384694
      5599.27650160
      8038.77739653
      1348.58503305
      2814.45978693
      6499.70198687
      5136.47713269
      5143.33543418
      2521.50301536
      2143.55302612
      -6784.91922624
      884.72157574
      6951.06057531
      2839.21309640
      539.90642877
      2269.84570637
      3323.50522057
      21008.06792979
      1681.06912718
      -1278.83611829
      -23.09173679
      1992.74080295
      481.79797833
      1760.84293267
      3046.56895691
      2777.59210599
      1476.17167522
      3504.34787851
      1535.99638650
      3270.56957120
      3573.86750122
      1258.55191073
      4949.63749970
      1580.11739261
      -2431.76925734
      4256.33484471
      4970.44815914
      1082.38874645
      -1117.89090857
      3248.90527338
      2832.42219888
      1929.86772144
      634.97157649
      2562.39432582
      -1830.59878395
      -949.35389939
      950.77247775
      57.39868059
      1795.81128260
      864.60434650
      1073.81634482
      1042.57091410
      2372.80971900
      822.03385794
      929.30619186
      -73.28038000
      -447.03524922
      -232.92129752
      218.00771325
      -1053.10781543
      1990.42271957
      -546.30170524
      -277.59452668
      -263.80384902
      493.96491224
      1.08754488
      7117.67019718
      3399.85344559
      6226.31764839
      4094.37578921
      2139.70062797
      836.04516463
      -47.35300855
      1100.95325202
      4883.50558136
      -3632.48424867
      1318.17884545
      1900.13676975
      3886.97898818
      3470.97774309
      4557.44895507
      3147.44938038
      6911.69064860
      5442.30685512
      -4135.80677732
      1424.32816236
      2619.09990406
      5371.52181485
      -85.04485989
      8269.05936445
      -1527.03712034
      5167.98553216
      2353.74359074
      5978.15715643
      1182.24131184
      531.09582124
      3567.46266795
      -1063.80653945
      -774.10241439
      13237.24671302
      5727.22959053
      5217.73688573
      581.97410469
      1733.31392885
      3963.55870793
      -1376.25141864
      2663.71327818
      2222.73414559
      -1602.53896187
      3948.21735974
      2049.20669538
      -854.80667240
      -71.34283282
      -1380.09604798
      523.51135943
      2124.34872387
      2065.55504738
      56.35970239
      507.81719407
      -458.64863163
      -123.40412911
      397.86276427
      614.61627027
      725.41269790
      139.32161253
      -472.31536378
      -1119.49650652
      -45.62183659
      365.95708419
      -207.80380632
      28.34310823
      -66.57736088
      -6267.15131559
      5334.22385400
      4530.10153144
      9106.64972469
      3546.39152705
      944.54584787
      12121.64324464
      2114.91149987
      3706.66711175
      -6452.35382179
      4793.48943753
      6374.68965567
      9709.04190196
      4589.27872089
      108.58819246
      7075.67956865
      15939.77783823
      8674.42285456
      8046.87388102
      13143.72958121
      10575.85174484
      6240.09769178
      5099.73580428
      6239.73267835
      1510.84676983
      2550.59932669
      7758.25159178
      1625.23197788
      10197.21395948
      2005.59886477
      4197.06147454
      16708.65309965
      6851.67387133
      -2779.35915731
      210.78727242
      -1652.64124016
      1225.93280011
      1068.76804197
      135.01340679
      1342.22358062
      2990.94241892
      2839.26815192
      6209.14028438
      806.66548353
      -2756.13961333
      4177.63324328
      912.59147433
      442.00298471
      -1449.23675368
      1473.87359123
      1857.72409341
      1369.90840792
      1251.62581483
      -252.13455479
      1474.27488275
      707.95838788
      32.06434728
      289.47891150
      1625.91393410
      236.47407691
      301.05365414
      654.87003859
      116.32598219
      141.73361184
      42.62110254
      401.10810786
      6301.29257305
      3285.72795050
      11976.68348206
      6528.64497689
      3669.63740109
      -1348.30958685
      5340.71627641
      6218.16204568
      4239.01069175
      2420.31026084
      1476.72068406
      -1533.21899149
      1499.91917254
      5445.70396387
      13426.37024851
      -371.19680290
      3275.26769604
      1770.76915422
      2726.21540908
      -380.43676550
      219.36506447
      7733.50395775
      2895.82847016
      3326.76919604
      2440.62620948
      2920.75953357
      4722.57159784
      15000.33516352
      4892.80548271
      6448.77190451
      64.63770825
      4610.68487884
      6056.65182196
      3376.92370686
      4191.83271686
      8021.82012024
      2129.85632704
      864.25350562
      -686.53027437
      5474.64211291
      4013.71870083
      1335.46448704
      4721.67230787
      604.50431047
      5091.45298855
      473.77616591
      336.17692464
      448.58312393
      787.98485575
      599.06838928
      1590.23124870
      2244.45530403
      2420.67118434
      2914.28773133
      960.89426052
      2814.66277585
      -710.10107935
      676.74996340
      1407.01973255
      396.61090414
      -803.44811847
      -2863.69374732
      -1886.15046884
      -122.87103042
      313.69022068
      13.91203570
      8048.01938998
      20835.60524696
      9876.66821915
      3124.47419296
      4410.53919211
      2186.29343181
      503.51694379
      -5036.80722757
      5291.91357881
      5112.56109243
      5095.95578579
      10184.68237551
      2701.31183414
      10389.97364967
      3124.77048580
      2274.24090861
      1947.36936222
      3018.02076588
      9462.61640335
      735.23876652
      1021.05041768
      1763.85148274
      1834.16068863
      6456.72090880
      5768.61425297
      2910.24463237
      3858.50491235
      4601.83661584
      -2563.95501985
      1898.47714887
      3260.32088013
      6521.59153418
      -3650.64478868
      8631.88580687
      1561.00898887
      13436.35956175
      -977.24855964
      2086.12880739
      2253.15047739
      1876.82801385
      4920.29772438
      779.41914970
      1207.04383460
      1059.05583429
      -1575.05047109
      2500.33618079
      6616.08657206
      2922.54365978
      -1903.75588554
      -226.69955096
      -173.50705925
      1503.16019986
      1684.69867091
      103.93323531
      1973.94581983
      485.76305721
      511.18706663
      988.92319468
      1571.53087536
      513.31903155
      -300.59188270
      982.10399079
      -208.17875443
      -744.28779055
      -3.12717330
      -66.36427481
      14538.52695343
      625.93958339
      7212.08314432
      13859.73164214
      9774.40571371
      3747.14613724
      3106.05993592
      5729.89230424
      8593.78288800
      5644.82253120
      3030.34848203
      -419.03424387
      4543.65847535
      -34.30745258
      6892.19683845
      1239.65872066
      -805.11300760
      5788.50039424
      829.07198454
      -1491.25280825
      646.21299041
      755.61429832
      4378.44460245
      7501.10944468
      505.55222489
      -8251.22191742
      5611.82256357
      10371.52391028
      2777.22261912
      4930.48510109
      6065.30667761
      6570.60500021
      -1850.66250472
      11.65397697
      12978.93871668
      15528.67548623
      -2439.12384933
      2913.89830299
      3942.56708940
      -593.87559353
      -1476.24480676
      4911.91528263
      -5418.37455960
      -829.27369229
      810.74317823
      6432.19205191
      47.11526645
      1103.24556926
      -864.92015074
      1744.09807869
      274.22760263
      1647.41324553
      -718.59519496
      -316.58549386
      -378.12104570
      2384.57144342
      1439.03889078
      2583.98491085
      559.14815104
      236.69879719
      1268.38463149
      623.93096467
      595.88216384
      1989.22362282
      1679.55289326
      1089.82385620
      -7314.18455151
      4530.60946400
      1701.36518806
      733.97270930
      2320.85963510
      4776.31255115
      2528.74010080
      4686.24585140
      6487.85442647
      4256.52756559
      8789.47791862
      969.03962098
      8319.19390630
      9238.88872846
      5670.71445781
      2626.10645273
      448.78921750
      -360.23306620
      3585.49361494
      6217.28121884
      312.05506944
      1295.54031865
      1853.34482602
      3893.03496300
      10121.35685833
      6955.00266686
      340.25121701
      3995.49263555
      -989.66718025
      5849.28378519
      451.21197195
      -151.60924046
      6218.94295861
      1580.17621691
      1972.08001908
      7574.07534932
      4129.22846577
      -2860.14781992
      2455.77830930
      358.92775450
      1021.62872465
      4189.51756915
      3173.91763346
      3373.62566199
      5039.48465782
      5276.64471327
      7036.19441256
      1587.64152241
      7023.48230673
      5875.30226182
      -1560.65453805
      -441.15949475
      335.13093533
      -124.67756788
      660.92814527
      572.57263005
      421.01288547
      1341.69144636
      2143.42255932
      397.53414003
      2086.20213875
      1104.89961180
      -21.26072615
      -664.58295501
      -1005.49041318
      599.62322357
      -19965.59071168
      6144.07911246
      2032.09608182
      -296.37033456
      6113.97973237
      5112.77634129
      937.66609969
      3581.66363050
      1680.79466096
      1392.86225495
      3343.95587052
      3647.05425552
      7252.84615271
      734.65070719
      -11138.51099654
      6473.92339542
      1044.44492109
      7321.60716811
      3350.42992631
      1479.02096852
      -875.75173379
      3704.21648266
      -1181.56069953
      861.46092498
      -1503.16880957
      6522.24598087
      2074.04571411
      407.05502958
      5516.92569898
      -2201.29654618
      771.98906751
      2880.39103803
      -1162.41671395
      9238.68991902
      8528.76892123
      3136.46036938
      -3169.17498948
      -4641.83337472
      -713.26803712
      753.13261458
      -4000.60254958
      5914.19424353
      -139.18957049
      -1888.44561347
      2574.02087301
      5635.27461392
      6119.42956546
      2946.07231262
      4702.79432939
      250.36420110
      -2792.96051813
      7006.31387167
      9581.09516842
      3359.76328550
      3965.54412984
      -1341.81086752
      1907.20627843
      -638.95419236
      245.85219078
      -249.54723470
      951.24521877
      400.94584078
      -52.15145773
      103.56345180
      985.67286303
      639.45400925
      -20679.69231914
      1143.04157099
      3705.84688824
      5800.43288299
      2534.52441819
      7503.89813499
      2042.94511339
      4818.35718590
      4397.43872190
      3963.67722809
      3461.63065309
      -6402.40667915
      1247.18606915
      8365.46411180
      -2512.93252323
      1248.45669433
      -279.81839548
      2643.04797598
      1853.02051835
      4831.26896501
      520.80440715
      10641.62173329
      7859.43453474
      -690.07159104
      -63.87074930
      1475.76041661
      778.35993598
      -3221.30435785
      137.05442324
      -362.70584533
      -662.48098311
      2334.04088826
      -142.65686527
      1434.03298020
      -4237.38632338
      2167.88109241
      22549.96776651
      -12657.75983537
      22153.46777867