<?xml version="1.0"?>
<VTKFile type= "UnstructuredGrid"  version= "0.1"  byte_order= "BigEndian">
<UnstructuredGrid>
<Piece NumberOfPoints="5123" NumberOfCells="5123">
<PointData Scalars="Pressure" Vectors="Velocity">
<DataArray type="Float32" Name="Pressures" format="ascii">
      587.87359921
      9744.56951203
      13945.96373873
      -35561.77368429
      -25076.91863939
      17653.68896745
      -20482.92742986
      7987.25627757
      5590.61587109
      -37979.07088609
      17212.75888092
      -24929.46055353
      15211.99661242
      17026.88799980
      -24289.64383439
      4534.43872901
      -28172.76905675
      7179.04214248
      1218.85676666
      -19896.22698744
      5348.87381284
      2765.95293995
      2409.71946327
      1931.80080135
      691.11140938
      1011.75869040
      2134.88810035
      58.32769080
      841.66788723
      -1104.69415920
      -698.38566889
      -47027.46217115
      12849.68252726
      -11979.89435153
      13624.87177699
      -5643.05007515
      3312.18866447
      -10258.88116713
      5143.98057364
      -695.38771679
      -1443.19546490
      -6745.11676108
      13114.28791662
      3011.67629092
      -3993.93424651
      5551.72951706
      -1590.04842894
      -154.36301242
      -1639.17655950
      -8911.69485870
      -1516.40610476
      465.15952066
      108.95053918
      -729.57705439
      -2851.92461845
      -1067.01604549
      120.91496038
      -1781.89190744
      -1087.80317307
      -259.56339652
      468.26525972
      821.62061849
      2125.17426720
      -482.32504217
      555.00091535
      -497.47172348
      5949.27108960
      15385.37728322
      7131.18757993
      6963.84573377
      3283.56334220
      2381.34986951
      1674.92858298
      1374.29253384
      1197.77750932
      849.37641359
      2415.35067769
      3199.49377921
      2026.51811484
      2153.81596098
      2662.07425651
      3973.26691691
      5079.67206732
      4369.60953631
      2807.24718482
      2865.63704174
      2660.44515348
      2322.77505010
      2980.08098245
      -949.69185061
      1523.14384902
      2050.90936579
      2587.82201370
      4896.82787588
      1575.77929636
      4092.78798828
      2254.01448587
      1833.97000006
      -3984.66067401
      1572.50043841
      1134.69617014
      1360.17298659
      2945.64651771
      1028.87437765
      -3189.14612326
      -247.63682350
      391.67865175
      3047.67567507
      -5673.01144867
      -694.21561053
      -1800.53713568
      456.18612836
      -1093.11407548
      2898.70551700
      -5431.25619254
      -771.82738589
      4656.85568647
      -62.29184530
      -1316.70451318
      20.65140133
      331.67422562
      2437.36857992
      -1131.90031207
      2080.94766749
      -695.26978745
      203.30888828
      -1152.97937078
      -1132.17406706
      -330.53393888
      -440.63736362
      809.69040807
      505.53878129
      6018.37198326
      6302.87607674
      10191.32329535
      8645.72323628
      6260.69022733
      4901.18948046
      5142.72538598
      7288.57395778
      5784.00591477
      7821.85664312
      6384.05756540
      2591.25151060
      1750.47269457
      2529.37506290
      5049.13817407
      2990.20045800
      6297.97355086
      2449.96879539
      2036.47805298
      6502.43719152
      8561.12842813
      4197.04183255
      3417.99824856
      3889.35675931
      4667.72506844
      2234.51650487
      4586.80435919
      -97.90996978
      -132.22243911
      5542.73413667
      3010.73522522
      4573.40455434
      6182.13254854
      1782.17172513
      3260.34482478
      1427.11111696
      1389.22928948
      -1048.61451541
      2758.33175141
      363.32375172
      639.28693467
      806.50761369
      1364.64893069
      2425.67046270
      547.58281776
      -974.10778529
      4842.68312459
      1114.34952912
      -1916.02337728
      -837.38853113
      1070.25880765
      -80.62419643
      -504.54332383
      246.78331564
      -3148.31412371
      1293.70356643
      5608.13122048
      2634.81370322
      2432.90801796
      559.79042033
      2295.94776509
      1786.16411437
      -498.87324528
      -1684.89608500
      -978.52472835
      -113.38289929
      9050.75258512
      6158.65482780
      6611.67412992
      4623.44532586
      3355.62825146
      7160.82268935
      7068.32872063
      4881.02048388
      3522.18272049
      1186.56432346
      5732.86648901
      9628.62848527
      9533.05275770
      3760.38669417
      3299.10022221
      4544.93093318
      7904.74360594
      7048.88107999
      4721.60531257
      4737.43619362
      1391.83313526
      5187.48905408
      11217.44582022
      2804.45965658
      2727.80112974
      4016.70532673
      3615.44854777
      3700.50009346
      3568.28898547
      3597.89111695
      3167.55741840
      5374.39238937
      4080.96313807
      4687.32415114
      5096.90652182
      4235.34764230
      671.66895805
      3012.19041707
      4445.51252511
      2909.06530067
      5075.27334544
      -1095.99528699
      4427.62417158
      2258.19303671
      5015.98149272
      820.15375844
      -420.24354262
      -1081.37872894
      523.41981895
      4164.29983716
      3843.79467493
      -7969.26584477
      2156.78738676
      1039.21325663
      2285.13145111
      5551.69530611
      484.80880115
      1571.00058227
      808.38528265
      2423.81990308
      2841.58365405
      2642.80712565
      3371.32003947
      221.12898107
      -158.93578103
      -100.91165870
      7100.19685605
      526.22445460
      14369.30431203
      8973.36320675
      13471.91589032
      10473.64826371
      7351.32527555
      4519.81419495
      1185.62643891
      4549.77470381
      1725.52361626
      3838.30228675
      5221.25541303
      5729.84756869
      12621.24961163
      5570.63559584
      6569.68044264
      4576.28954434
      3777.19914889
      3519.52110025
      4533.38867394
      1800.22415180
      4009.75082231
      5062.78196782
      9675.84382056
      15798.34895885
      5241.70757732
      3107.16049367
      1746.07733476
      4495.10743275
      3029.80744796
      4409.03644523
      1231.46062462
      3326.36369159
      5439.46812300
      4905.72712433
      18236.59635727
      3676.94203830
      6229.57091998
      -903.32471007
      451.05061726
      -2345.86586710
      6794.27207897
      3103.86397478
      -781.05718207
      3050.63377909
      2299.16025608
      6416.22438061
      2700.13477066
      -2984.03601970
      1760.77378738
      4524.41322022
      3912.15527203
      2493.06988015
      -1166.36087268
      3486.80045595
      78.23442493
      6958.42553143
      3512.54104795
      2483.48865860
      -1714.54628830
      1464.56903485
      489.18508937
      -146.80334299
      -1706.99765189
      391.72738417
      -17305.06999468
      11371.91939696
      -790.26517292
      11974.78543740
      10549.38237395
      3388.37709515
      11544.29327903
      9761.05109785
      4774.27784283
      11073.02384113
      8979.75932472
      2874.77462057
      5038.40824737
      7059.76320776
      5043.83862560
      4097.65918328
      11251.68832406
      9637.54830086
      4800.19568815
      6543.92706728
      3034.08257590
      7929.68418384
      4851.10711570
      7184.77886038
      7071.74879989
      2348.65682084
      11580.58324483
      6639.54872673
      3985.28082005
      4819.37461304
      2333.91516869
      5627.84669530
      6497.56621082
      6941.88245973
      3974.93628022
      4120.59172320
      1921.18951688
      -253.73385772
      2219.14448887
      2147.96988051
      4283.03786460
      5055.52226179
      6193.84646963
      1642.02115080
      63.84108375
      8024.05461779
      1088.51435150
      5714.17379106
      3711.70181006
      1491.71082454
      2248.62943483
      2169.64238972
      5826.60804387
      895.23128978
      579.85483184
      733.90010969
      1080.51305935
      -32.20087207
      2849.81496518
      3485.72279891
      1297.01156732
      -2382.57930426
      1676.37384861
      1630.30180757
      -1798.65442948
      -112.46301741
      -28807.02041058
      16602.91079330
      10340.48854518
      8348.81950963
      6634.67270032
      4359.90568728
      1728.86476663
      2717.03143340
      5280.61701958
      6777.92517282
      8639.97507147
      6474.44967540
      8022.53897812
      6360.20575342
      4763.97659067
      4547.02329243
      7999.55089850
      5562.71874774
      11182.39843298
      10840.06707419
      3081.04413340
      373.93348574
      785.49691638
      9545.18404407
      -1528.70229169
      7596.83873890
      2964.56466732
      6050.82752336
      9613.78497024
      -744.56466791
      15951.71451778
      4829.64838805
      5818.50133867
      1988.27864758
      2766.68763329
      3900.14617801
      5109.15753280
      6717.44471792
      8539.81100123
      4136.07725368
      3207.97811588
      1018.69103693
      2962.84839438
      8209.39021571
      1734.12277954
      720.95628775
      853.53933381
      2716.90457026
      5318.09576262
      3314.72744807
      5264.41969483
      1978.87070307
      -720.14918290
      5835.78539177
      1985.20287621
      -789.47555323
      -3.03713699
      1473.97055952
      508.10768004
      2298.73247828
      585.74039990
      2894.94446193
      -1597.71962608
      2480.80836883
      -408.02971337
      2497.66467312
      19424.35557557
      13006.95274310
      4591.87452921
      961.60739420
      1800.35069395
      2233.83144532
      8714.30768737
      3831.96505955
      11101.54954291
      8883.87457369
      12769.22081482
      8454.09081756
      5568.86226550
      4891.45436336
      1105.65098064
      -1886.57096268
      5480.50586508
      5245.87259906
      7183.20371081
      6161.29980221
      13966.09427437
      11922.02151661
      8547.48184656
      3880.30370164
      8623.91149388
      -7371.49130596
      4328.40245641
      921.31692384
      12689.68817944
      5722.19956647
      7022.35519101
      3816.33726703
      987.47417633
      9375.64325582
      2868.08991202
      4959.60244162
      6670.16167726
      5037.43225712
      5414.47309144
      1233.85478695
      2468.50677100
      354.70186307
      3874.24347160
      3021.26397446
      3296.07439010
      3421.15620771
      2817.82046679
      3545.39420514
      3087.79588028
      1634.19681568
      839.21467775
      348.61279525
      5454.81690614
      2727.13958147
      -1623.06330294
      5258.31535478
      347.00206632
      -193.96447216
      782.77965812
      3094.58625448
      1310.27777462
      1183.25722958
      -115.64154507
      416.14703803
      -1077.25117466
      1607.45222625
      -18063.76538625
      3895.70967847
      3106.33384716
      10988.05245206
      10560.95892985
      2826.16580012
      6458.79066906
      9749.14343864
      15098.01781282
      11916.90557810
      13606.72794854
      7406.26783970
      2397.84277010
      -2789.44318664
      5817.06881818
      2025.93537212
      3473.34113685
      15617.23430015
      5358.74361477
      7510.55964389
      7686.04446670
      6991.57445513
      5476.65164038
      6901.65924960
      6295.49521730
      5849.68257956
      12525.77502412
      2089.76956018
      -10.33198459
      7618.47073800
      5484.66153726
      3142.06542206
      5964.63172712
      2617.99989622
      8473.57736838
      6067.03511604
      2387.72893439
      8532.69693746
      4092.71345397
      11966.41816898
      890.63908529
      184.10331568
      1263.34300963
      5331.71043764
      3081.60585103
      6180.21857529
      1947.60418630
      5475.31796156
      5806.46473907
      6654.06511041
      419.20907985
      851.82777365
      3990.60038213
      557.50729126
      1266.02922436
      2261.07459533
      2555.49895870
      2689.03585095
      3277.90823717
      769.55976525
      2669.41629535
      2113.10703500
      2375.46170927
      2405.94901743
      -764.16211117
      22.35325701
      -35532.71009678
      10355.98803577
      29416.10953465
      8207.00614904
      3720.10901032
      8827.54733523
      1592.07552946
      14322.86519072
      6498.74572310
      3363.55320895
      3767.22613001
      1064.31294205
      -1268.36496702
      4065.38585930
      4407.96719271
      5811.62804622
      5429.91278370
      8005.63239801
      5571.52975865
      5632.46632187
      3118.87847676
      3869.39888152
      5177.66618178
      2412.74915089
      5272.86988146
      5993.82877566
      3606.53210590
      4703.10198207
      -1513.44189286
      2175.81178018
      1314.22321695
      11664.31643376
      3281.94380383
      8131.23883862
      -1689.10910142
      3792.80725930
      6875.27059319
      5869.58541793
      3652.94646991
      1135.99791551
      3259.22558370
      4583.20614219
      1615.60875742
      2223.01947796
      5618.83689266
      2906.43429750
      -922.42964247
      7468.90168394
      -1557.88490900
      1358.31387579
      2802.86114487
      5259.29161929
      1759.37462184
      644.35422114
      3269.99162671
      160.76850915
      63.28274142
      4698.49880225
      2805.49901293
      1716.77292244
      2548.05137792
      208.54882235
      1421.96020049
      690.18389178
      763.63996303
      -1282.20244178
      -32327.05726218
      13449.68555014
      5952.82921115
      5929.19475310
      17283.31527293
      13170.22798967
      6037.64889846
      5494.63098818
      5417.79135525
      3380.42812777
      9375.60981067
      -1475.79087732
      3722.46408379
      1790.24851201
      7794.58059091
      5085.21317484
      11984.63900014
      6098.01879462
      2076.20537416
      9168.09101888
      3374.34722643
      -3425.16901599
      -1530.86446862
      7785.19812172
      6601.28899101
      227.86493645
      6272.39029636
      5554.87617379
      3192.42158915
      2560.88074544
      -261.21557270
      6239.22235088
      3942.27091057
      3334.13867722
      1502.54438570
      2452.29078636
      5054.11526523
      305.88456699
      7046.36160963
      2281.06255975
      4097.59211756
      4658.14351263
      -2420.23392733
      3376.70332299
      3205.99789755
      4364.13738441
      1365.17421729
      -1569.59885772
      2801.23544526
      3213.54388307
      4255.72889512
      -593.42917847
      1529.85026536
      997.31806627
      2904.99626049
      4054.33614216
      10.87214437
      2413.11301663
      2824.88089157
      1425.48698389
      2503.01601096
      982.21619186
      1907.15963488
      -1725.02011348
      961.56319199
      5315.99371345
      7412.45402246
      5225.39789370
      -853.26254619
      4039.09719741
      4592.98706557
      12613.22059922
      6229.96728723
      6202.28352220
      16591.02473455
      4599.24088335
      6515.08218810
      2251.56655101
      1510.82268264
      9558.53305286
      730.81709279
      8136.32194269
      3916.57983565
      6965.56670924
      1793.71689147
      3452.47548686
      4022.60121642
      1587.63685008
      4739.30178395
      5015.42088809
      3004.37400061
      8025.94480576
      3836.71575588
      -1123.45834102
      3912.43778565
      5364.42844031
      4835.71678458
      8327.90672808
      3626.56087067
      4345.63895863
      3183.71364337
      5480.63257063
      4710.33425888
      5383.70949552
      4230.63128124
      797.56704342
      1123.44415516
      4621.35438443
      3840.14772419
      4497.74126449
      1877.34757859
      7856.55833640
      1392.79495946
      2627.61085828
      2088.80361520
      3561.67665774
      4160.80589074
      2034.37249880
      637.36214673
      1678.26949249
      2104.17342501
      3547.61609834
      716.30514542
      3389.27442775
      1274.86577793
      1149.26897857
      3499.71849342
      3565.81039793
      3489.34638401
      -1648.89468401
      -160.06379313
      188.10673058
      8718.40723282
      10484.48406468
      1889.34859626
      13807.48376462
      9586.51311410
      6188.39575092
      3691.65763404
      10905.08997598
      7549.93501896
      14252.33539554
      2439.76873209
      6034.30940521
      -66.34946602
      16802.57671478
      3817.92106286
      2747.88579983
      613.22753152
      865.30327757
      253.01017202
      -2232.95859420
      4524.99154205
      8134.45151654
      2213.77580908
      7175.30254639
      4266.39929963
      374.43453861
      6891.76780115
      3543.86606833
      -1309.11104999
      3481.47693199
      4721.94890267
      948.57781119
      7119.02022633
      3475.21112604
      5751.90660630
      5386.21626115
      3172.17366455
      6456.18706387
      3378.57985637
      4791.44193823
      2763.62447449
      2993.76855802
      2747.87832368
      4286.26096430
      7507.72537628
      5307.23071591
      4401.87029310
      1860.54281621
      4622.14568109
      3003.60380026
      3072.55226640
      237.58449449
      2042.31957934
      3868.96386045
      1779.54267289
      1673.99506684
      2565.66721229
      3845.08249432
      822.34134798
      497.89996944
      3403.42963013
      1843.63318963
      1462.30438493
      -572.54339627
      1293.90783439
      1213.16646704
      10138.73479201
      8447.03741828
      6781.85186691
      6408.21281242
      7078.82049594
      2804.63146131
      1572.71556439
      -258.38094678
      7051.05729021
      7846.97773400
      5855.24943140
      5919.14533746
      3263.94792774
      945.87812636
      5674.38486908
      -9955.90689770
      6540.51843170
      7703.54388299
      -982.29624894
      15807.55037890
      5666.85300462
      2074.16172297
      -1944.11172093
      395.38007552
      3419.95031425
      -895.08001735
      902.52201304
      4702.48143158
      4475.61296589
      3313.01909011
      3839.01049151
      4977.93865486
      -1226.32591466
      4704.28425085
      5950.97430055
      2469.34225134
      1532.56083654
      4769.55013611
      1869.70584846
      6695.00401383
      3656.10581061
      1622.87186741
      2548.71974313
      2154.95542638
      2097.95359371
      3090.28900535
      883.99985257
      3702.49825201
      4114.13047113
      6659.46881287
      4383.50400876
      -1867.50986598
      1339.16745025
      3363.95770506
      2121.37495849
      3173.80395626
      2346.91978821
      2317.56269754
      2283.31659710
      1263.49788845
      4466.38920075
      1850.34821147
      1568.87020430
      1260.54522450
      834.65380392
      1847.33459472
      10611.55600494
      19159.84436173
      4981.66969856
      1765.85773163
      1746.07274890
      2685.72023680
      8331.62418038
      4364.00911290
      17213.81558975
      -118.29859656
      1302.14448188
      179.73314013
      8548.24933211
      4231.74163020
      10992.26364766
      138.18586194
      2387.68439032
      3220.04988382
      3743.69857878
      -2234.66665373
      1780.34105554
      1746.16941654
      -2118.49958064
      9117.09756690
      985.43746140
      2893.74610205
      1702.29593861
      2843.53461886
      3012.86889384
      176.10321069
      1771.23202922
      675.47340630
      257.93420880
      280.11864446
      4205.86545261
      715.31290442
      5342.89422072
      5712.69551305
      4410.69866916
      2053.50450998
      2344.14668493
      3937.22279255
      5131.24284346
      4264.91266648
      2210.81274072
      4042.95310585
      5302.52317229
      5871.50488915
      -635.59246423
      1180.67607647
      3001.48633727
      2429.04553003
      618.96944796
      2990.21539225
      4008.19974135
      2200.54124023
      878.59126605
      1635.70914778
      2878.40137119
      -1439.79328796
      3039.17576156
      935.82386655
      2220.90047300
      -1858.25894265
      188.09958854
      1501.08724279
      7280.30682257
      21372.00194330
      2889.69268678
      3983.56236617
      4845.98346740
      2405.20680679
      6858.28102345
      -4529.90726497
      -863.43897146
      1286.53890456
      422.89323501
      4219.31669281
      3785.83284356
      7253.05840175
      8032.56797154
      943.10784505
      -577.21374130
      3712.47364531
      1461.14441108
      -2991.20036772
      -912.23251101
      6823.37963351
      5094.29695773
      1994.97869564
      3193.90538263
      2926.14353191
      3961.66956538
      6099.44359702
      3502.14274986
      2300.07070714
      6573.93626592
      3528.15857747
      -121.81665641
      534.33907436
      1226.47560111
      -1109.33676679
      1356.64033258
      1716.81140960
      1734.99111029
      1023.16408081
      1363.72200203
      2484.62933019
      3604.93182167
      1825.32498478
      -920.18375235
      1492.12520651
      1258.12246471
      1140.97168005
      1612.15763130
      260.13813089
      3370.51362282
      3475.39364211
      1703.79127135
      2222.58046953
      3747.75645106
      3555.92884682
      465.80047512
      470.81737054
      2442.26816657
      -1878.97372852
      1198.84198182
      2390.85661812
      3349.61036683
      -2660.26760310
      859.06402971
      -565.50982128
      9567.01657355
      6553.55632724
      12127.96505892
      17544.56689745
      6675.00115330
      3540.47458618
      3058.58693741
      106.24799881
      5025.09014525
      4094.84170558
      17062.12251970
      6342.74946811
      3463.89332171
      3416.87065549
      5352.25400391
      4113.90417814
      6869.78520024
      11778.45835304
      7994.23371573
      3291.14858651
      7666.45683535
      3096.34574408
      4637.20596267
      2132.81745422
      4872.44777466
      7184.70389503
      5708.55860972
      8884.92652409
      -744.92287227
      5824.29287609
      3178.30641028
      5216.03334696
      1526.17101961
      1610.04567918
      4175.10497241
      -1231.05429468
      3665.60075077
      963.46537399
      3133.66190157
      3281.96410046
      777.29285821
      2958.65176854
      1306.29179515
      2123.44209674
      436.18624716
      572.48468455
      -640.25123727
      2602.48625211
      2848.26727398
      3191.81566772
      3913.00276019
      4291.88937301
      1524.97515660
      -2247.66343487
      652.62135290
      2509.17888117
      1680.27413135
      1525.19333726
      2760.05769232
      931.45365351
      451.77769867
      2574.43972675
      -94.67288590
      -1.09331950
      721.42490644
      487.74358426
      7594.89257257
      8854.48180891
      3014.96901732
      -701.56988546
      -5196.26994169
      2860.58152970
      239.25288227
      -3059.75053054
      1242.82009145
      4990.15183896
      6142.70316117
      5757.42818622
      6088.20223648
      12236.51128973
      11388.42600159
      -9311.66024574
      5387.94006639
      -293.41766739
      1482.42076195
      -10850.69864391
      3752.89400906
      3982.43481719
      6627.25770226
      6759.45479153
      5708.66722445
      2022.75384151
      2488.36899010
      4843.39816395
      2582.77504334
      3635.21515094
      5342.59212278
      2597.88240172
      -3551.54238468
      -1136.88448292
      6319.13206273
      4264.50529170
      -89.88118706
      644.44740547
      3406.51450833
      3179.56115363
      3776.91001159
      2367.52742897
      780.04582203
      3655.18870188
      1158.48513101
      805.50629427
      673.11272636
      2417.28575840
      1378.62324732
      3405.42969309
      2732.22188577
      1948.22072552
      2857.74356626
      523.46214766
      -734.00277644
      1446.89443485
      2791.88730523
      2391.20135185
      -109.52400687
      1417.93051941
      1071.82068056
      3616.00278073
      -1094.72121234
      -2113.33198021
      -1074.81482884
      1343.40117987
      26131.98710583
      8.30757804
      15521.32619753
      932.17559542
      1259.60819834
      6839.13047208
      1305.48640651
      1809.52433897
      3640.99558707
      1000.18031523
      -1163.72937811
      1162.99810713
      -2737.89732027
      4343.66923235
      112.21252199
      -754.50792035
      3395.21744639
      875.50634834
      6637.61531133
      5044.02901412
      -582.35846811
      -1356.97202118
      5237.79993626
      4259.62520906
      703.03834375
      6188.17756899
      4555.61086512
      4309.38714189
      9144.09520653
      -1538.46880460
      1841.00771119
      1264.27434301
      5509.13839496
      -3117.75361199
      -1211.21547236
      -1713.35315653
      2683.78250464
      5078.92140479
      2411.08515790
      1069.13264402
      3042.58985249
      4523.18853497
      1207.38839272
      2269.40216079
      1805.82350276
      -1028.85080823
      -823.99626338
      -4706.97246412
      -1311.78672485
      2170.33531452
      873.19924244
      2873.35299080
      -920.41068863
      -1577.81002720
      -1479.02249828
      696.99809291
      5022.37174818
      1982.82530076
      2113.79779599
      1862.30136924
      1709.59992133
      6.07439812
      1642.14737764
      -57.21358602
      -1406.37979068
      229.42540887
      5900.88816972
      331.79760697
      5741.62156479
      9435.88507711
      7297.83377466
      583.74045777
      5128.31188044
      3349.01239485
      666.75517664
      3898.24800124
      410.95626056
      920.61371899
      2044.28407548
      6086.18618026
      9185.64201178
      10585.19298504
      60.82148895
      -1114.52779628
      -2185.94331896
      -4367.02680909
      3420.82972382
      3265.72001890
      7587.59414677
      1376.04317090
      -4003.28779102
      1660.23473778
      3340.21292186
      -2627.30148523
      5194.98934821
      5868.66561919
      1981.67628183
      2175.84469947
      2918.62066457
      3030.18592064
      1351.33174181
      2417.34294728
      1985.84839209
      443.37989257
      4842.43676424
      5675.49344759
      6595.36367703
      795.56123978
      2858.90928213
      -786.76844829
      1993.17412294
      1131.97597759
      613.16607321
      -2988.99261171
      -4034.47881128
      1995.37530077
      914.23821345
      3033.86899890
      405.74585144
      1719.53677685
      2272.69372281
      2337.67633446
      3406.46053617
      2273.50790249
      851.15353239
      -2919.56591325
      1534.07428372
      4761.79181037
      -1041.13786670
      635.36382270
      1197.00084909
      158.27446278
      12451.51706691
      7484.68861155
      5261.96273228
      5132.46028289
      716.47154871
      4204.59149083
      2215.75666525
      20.52873241
      -1110.33378908
      2649.75757724
      -3298.67902909
      2931.46572799
      7008.79245857
      5489.26286516
      9737.23988768
      1341.68504390
      5100.83854374
      8312.31420065
      3279.81682771
      3424.18854634
      3108.91521707
      2015.84501593
      -299.07061952
      1321.67081210
      -637.06462433
      4808.21207859
      1142.56349836
      -568.42921489
      4418.10564842
      -1044.71484437
      595.06049314
      3565.47054674
      1327.43614099
      3075.82483212
      -58.30998014
      -521.85759994
      929.20836508
      2639.73092917
      1380.06676120
      975.20521864
      1569.67690735
      4296.73563066
      1524.37985501
      2598.20685483
      2026.96657031
      2067.91297081
      3432.33592946
      751.08723529
      783.00996800
      247.04404996
      2496.26604184
      2074.50328205
      1878.73868261
      -74.13721745
      -680.24243178
      365.53786176
      -2039.07696226
      -1021.88495177
      -941.11670268
      -1713.37142976
      -58.66028939
      1603.33794665
      259.99718473
      -886.64856406
      -775.61689218
      3596.50672183
      -19965.59071168
      5368.61257593
      2112.81853600
      4346.89639226
      5761.87730449
      27407.24924582
      5080.25568462
      2464.44471222
      2415.40367503
      3240.75344494
      2650.73354719
      631.34126002
      1264.62699554
      6035.41911336
      -8352.34523771
      -5912.76775713
      -6409.52354527
      -6333.62262863
      11441.78970992
      7435.24553460
      -1940.00113039
      1819.38798713
      -3518.26308030
      6878.90785336
      3405.48529028
      -3972.98720777
      -97.46179995
      1840.94659236
      1136.09748781
      6653.45031186
      4883.28731140
      4479.36467395
      564.12256375
      10939.24667971
      6831.28448191
      5775.30506015
      3222.07201322
      393.36489299
      -207.78255395
      2385.99890521
      1227.33592819
      600.43946440
      3949.84005520
      1828.29555037
      1376.05012579
      466.32814590
      198.71511030
      1405.52174338
      630.24431792
      1231.32615778
      1261.20794142
      1894.35828562
      666.22795117
      -26.23443536
      322.62375412
      224.86123287
      2268.42819858
      -403.47645941
      -703.87554540
      2234.39567673
      744.63839855
      -56.28044780
      -1800.29627774
      -1941.67908444
      -947.94396024
      -668.77402370
      -20679.69231914
      -1225.19981274
      9378.00997816
      3551.26217618
      -3228.83481721
      3415.02942748
      7608.98335530
      8161.13006753
      -168.37353442
      1730.84907215
      9108.61479957
      7560.61126906
      -3909.49190109
      14660.33222101
      -6106.26087554
      8976.46881392
      7391.11502000
      18144.60926071
      16355.69826086
      4204.95424149
      -1481.08938376
      3222.45052419
      -5.80743379
      14614.20425860
      8534.57151165
      207.43973253
      3560.62881909
      1915.10307033
      3921.29450416
      3228.43984875
      502.18491915
      4213.14803998