<?xml version="1.0"?>
<VTKFile type= "UnstructuredGrid"  version= "0.1"  byte_order= "BigEndian">
<UnstructuredGrid>
<Piece NumberOfPoints="5123" NumberOfCells="5123">
<PointData Scalars="Pressure" Vectors="Velocity">
<DataArray type="Float32" Name="Pressures" format="ascii">
      48591.87572259
      -26792.70459824
      -34679.88471811
      -35561.77368429
      -25076.91863939
      -21507.37328172
      -20482.92742986
      32430.64229956
      32219.34905902
      -37979.07088609
      -14904.73250771
      -24929.46055353
      -29033.11064677
      38602.74630000
      -24289.64383439
      11600.15657338
      -35135.46995009
      78180.69373448
      31923.95972244
      -24895.44964029
      27264.45760604
      26862.13429434
      50747.25924397
      30606.82527846
      -14799.30228972
      6147.72434967
      19080.95792157
      -12174.62066616
      4998.31558777
      33789.53441092
      32884.01799616
      -2398.55931312
      19344.65860353
      21554.47612387
      25429.49125585
      2301.98770580
      5387.31584864
      6736.09750676
      11296.90033574
      14822.52984937
      15376.78038564
      5758.12091884
      5288.44629595
      13330.97241737
      5718.13142939
      -777.99082709
      4109.08757498
      3570.04098346
      1341.79246292
      2612.99749270
      6474.11326900
      4178.90255145
      5002.35740083
      -2526.70991689
      4637.64421104
      1369.54843697
      1576.51189524
      957.70660297
      -107.32352387
      -2542.62070223
      -1524.84428412
      -1715.13152753
      400.82566775
      -737.81511601
      1489.48206594
      953.83107716
      7325.64952427
      26625.77949325
      13770.56419842
      20391.11423221
      22414.79060322
      16296.87080851
      20724.96093796
      22439.23274658
      17283.12199968
      13750.35446471
      16828.44658262
      17507.02922005
      14124.19208303
      4849.59336878
      10663.05157129
      17145.75278507
      23732.20591370
      8333.25949766
      24857.39480186
      7344.66275026
      13464.45679440
      1259.73561907
      4549.65565686
      16543.91333783
      17356.66268472
      11825.10023231
      19078.84617777
      12308.23484207
      9928.93873851
      3295.87653366
      14828.47428321
      11158.02652696
      6244.91363762
      11055.73666769
      10961.90407152
      14888.74569992
      7734.44032985
      11981.00258721
      7874.30779050
      12676.88338749
      8968.99558797
      7875.63601027
      4248.68412945
      6106.31269138
      4643.06501758
      2646.67987405
      5165.18386371
      5369.81513845
      5344.36950411
      8521.91712922
      4435.68338957
      5588.33617128
      7128.07443347
      624.00959395
      -108.81296436
      -3486.64392402
      3906.68857155
      4677.27662736
      2604.36689584
      1170.35514546
      482.91788931
      2404.70735576
      1903.76292344
      -2285.71217970
      -1463.45922721
      2100.60691581
      10662.51385268
      13924.40824580
      58766.91117307
      21064.95487516
      34721.92038448
      19602.93269855
      23884.31465104
      9391.82813993
      12536.02736730
      35783.76436941
      29694.61305842
      11954.79309375
      21862.12091094
      16596.94419249
      17617.51765210
      28068.88364654
      5968.80170644
      14175.72680006
      35338.08218050
      15991.42809344
      16262.81098989
      7032.90649828
      13551.19685823
      17067.89943977
      7257.01227204
      18287.36880555
      16438.80818632
      18961.33620907
      12824.70288708
      9850.36842221
      9493.55085533
      12070.94216827
      12001.28832943
      8896.61990031
      14711.25273912
      19289.63623430
      6146.42608988
      7202.17110246
      15277.67919921
      9328.71582818
      11479.91088991
      7851.23770248
      16441.92422366
      12236.91846633
      5645.62406611
      11006.05302712
      1801.92098848
      3505.92587551
      9532.47675476
      9689.18755028
      2683.30140863
      4871.73490858
      6687.98194321
      3801.31760410
      3862.34565062
      4719.18924547
      -141.15491806
      3780.18167516
      2038.76617083
      -1092.38443015
      -11.79679126
      2571.97962352
      1485.29421290
      1024.40613987
      -1521.48132580
      200.14035417
      8521.60983189
      17514.94595209
      36976.81574135
      47162.53598259
      24864.10287735
      14847.75132632
      23458.75101373
      8824.58168204
      18606.72282855
      9232.76832007
      42862.30630972
      32252.89930240
      13516.38349870
      10479.15616159
      19788.11671396
      21942.14290738
      24022.84063969
      10599.37288487
      7990.50639472
      18404.44893417
      40470.33394056
      5016.11157546
      10925.20138020
      21006.90560035
      15260.53260072
      11625.15705348
      13754.62176230
      17710.02364780
      20903.95335858
      9020.19832277
      6694.16630263
      16437.30015588
      8473.65537062
      7236.03461476
      7632.17256505
      13864.94567563
      14753.14071326
      13052.69632946
      10274.47929622
      8540.98120819
      6501.05101558
      8633.11747912
      2614.16519358
      9696.49027575
      11948.70165868
      8025.42805021
      4284.26998465
      4874.97363890
      6032.17101285
      3425.77214179
      5204.46316803
      4987.16903949
      3835.32630821
      8494.08499609
      1483.30931968
      5783.46767035
      6582.42723595
      -483.65818775
      4442.39905898
      4503.66022382
      -982.28152501
      2342.36064223
      2503.15390734
      1319.16418102
      942.84702750
      -1080.16529928
      13244.31051535
      20672.47244219
      29027.78382842
      24098.14078838
      30385.15103863
      11186.72712139
      19095.47283239
      46462.82964650
      27132.42613963
      25686.37456726
      11631.13503384
      27112.93499395
      15600.30201194
      16373.39873807
      18524.25517342
      18748.17142960
      14769.42194661
      8692.40632786
      8053.55906169
      17651.43422380
      22363.77214735
      19653.68066942
      13876.86549344
      22850.11998082
      12419.09792135
      37388.86991872
      17727.39283414
      8572.11442844
      21696.52343838
      16401.85469413
      16029.19516199
      11496.14518862
      17018.18603774
      14492.59717535
      17661.95943289
      3027.73558579
      14711.22660304
      17660.92471467
      2046.92694889
      10808.91458098
      16979.95889172
      14434.63730962
      8573.33377005
      6571.20812841
      16137.01552414
      8061.12689425
      807.15374120
      6928.61205583
      9521.38308299
      4633.48177437
      5783.78604618
      6196.56217073
      4471.06045673
      5943.50015393
      5440.80166201
      4574.63439017
      5773.93906299
      3857.81228710
      4628.88589940
      1035.62180332
      1850.77175188
      3222.41309874
      2753.11771770
      1234.80358411
      1372.17353758
      -7156.85264096
      -17349.69672286
      5828.92089556
      11677.59362780
      40544.94869540
      9787.65278584
      9255.41398141
      8429.18343918
      21267.38884444
      21466.52883033
      29480.11785946
      9346.36497680
      15544.88407506
      14524.74293164
      12865.35939343
      16351.60519651
      19388.58329665
      20092.69710900
      11560.17304892
      14158.72233262
      15393.80754269
      16019.50985491
      12404.54322177
      16743.70031545
      23436.14504683
      12011.60770552
      18858.12290887
      18488.50529976
      10384.85590474
      19462.05136412
      21203.56077069
      18324.98486046
      19977.88672565
      6748.61376345
      14567.55823741
      26518.25158059
      6223.18084448
      3486.69565343
      14532.80442144
      26598.85233259
      11370.57972384
      9867.95231820
      9194.02732346
      11950.62363949
      9244.62577556
      11531.71108721
      10612.68809147
      7199.44597921
      5813.14186877
      11268.13476397
      9273.37354964
      6363.80714658
      7136.55868803
      9197.92599196
      5820.13362637
      3242.46661667
      6625.77215681
      1813.87248749
      -1129.76936157
      4134.21559390
      3602.75913312
      4225.62518139
      2576.18407256
      2155.56953571
      1534.44676188
      683.34898752
      -7381.60877819
      -24362.32081344
      19161.69708979
      25735.73956831
      16433.01850943
      41321.90761047
      25087.91616231
      12477.91363534
      11981.51847275
      21219.28717701
      11587.26025224
      8326.04373953
      23464.92299352
      30979.23331525
      14533.33707506
      11728.27535261
      15134.29265679
      23082.56601178
      17916.89753416
      14371.50389699
      17652.22892038
      15161.03543421
      14755.29234588
      20257.83389520
      18785.91235250
      13135.03971807
      12340.58831624
      18659.97362479
      20010.14720414
      13485.26318308
      18102.99127573
      21485.93035554
      17869.04404547
      15210.65560882
      9029.30350835
      12793.31230482
      11329.79684175
      8854.39213583
      10200.43421180
      12094.03290381
      11876.57073712
      9982.26974393
      12456.96490900
      9701.95570258
      7447.88339795
      9422.10613991
      13663.98826209
      12744.12687345
      5919.21528607
      7786.60918443
      9805.29611912
      9478.65679756
      2622.23422350
      7161.67496388
      7057.58254536
      812.57983633
      3289.50186543
      5156.22449062
      3006.11138539
      2907.75190333
      -663.23719816
      1107.42010292
      2715.04351390
      1089.36797265
      1516.78384062
      776.46066786
      -966.89607467
      -4205.38884602
      17905.60198711
      24603.82946708
      7859.63780006
      -8762.86015134
      -7172.92055757
      9992.82829340
      18498.47468689
      1052.69432191
      37094.38306277
      23963.86230477
      3333.62815799
      23713.43508374
      24568.59719854
      22358.64407269
      6029.35651670
      16572.57314246
      18953.28638438
      22319.05005006
      8448.52561378
      11814.66666631
      18885.73815350
      19224.55197497
      24036.25550195
      5675.61999535
      9678.23444065
      21477.72256234
      18815.40906985
      20307.79729084
      14345.33903451
      12197.94257520
      23320.88495780
      19225.91187497
      14398.67481296
      10297.53395100
      18511.06290723
      14103.54928422
      5875.84515466
      8565.31969508
      14697.87056515
      10070.41931879
      8043.65223197
      8489.66831096
      14647.45230452
      9112.05622381
      8344.79864060
      12350.37222217
      4715.00344540
      7651.57410180
      9513.75703751
      3323.31194141
      4104.10983709
      3539.01463336
      1387.96121204
      4477.64141721
      2035.81546919
      2135.90839309
      5043.00889096
      2284.72922918
      2325.39187413
      3589.26429643
      3346.72134356
      2929.90752252
      1086.84314570
      714.10783627
      -184.86813346
      -22472.64222471
      29589.46990684
      15946.14432278
      18534.73786825
      16939.42963469
      10953.30515093
      21248.45335886
      25976.53941739
      36113.48865501
      8464.72664492
      7220.69925142
      38703.15592158
      24290.96178226
      1267.24819651
      10434.90404744
      14180.95507748
      22858.37785948
      10503.76708904
      5515.86119509
      21291.32644169
      13014.44212363
      12911.75850533
      27744.80882943
      18428.88609459
      4492.14837363
      10719.06470839
      14250.78975699
      28331.40197863
      17670.46047433
      7704.13955657
      18133.27204149
      20148.18760052
      19373.58360506
      11563.19627942
      10179.35129980
      16659.87611106
      15183.96339488
      7987.46017137
      13792.70151987
      20055.61916183
      11175.89806826
      10527.83944797
      7758.55727254
      12076.59833680
      8242.83256820
      8729.68362307
      11309.37668195
      8437.22519753
      5628.60449546
      8336.17673770
      9788.15640597
      5531.20435651
      9393.61092676
      10889.82283060
      1695.19458097
      55.52280798
      3488.80665476
      5816.23725504
      4052.20873906
      1809.96766150
      1740.25999122
      3758.73633270
      2401.92482929
      435.56336285
      487.82532599
      155.83851872
      -26964.03600741
      37126.09004237
      49853.38740857
      16850.49666327
      28954.40888664
      16609.60895815
      18111.34380414
      23253.28767553
      34863.26805034
      3269.74162487
      11722.18391172
      31670.05176372
      13422.09182279
      8605.99141324
      15566.16707282
      21907.47201399
      21517.18998234
      16475.59246739
      17055.94106879
      11766.84346677
      11784.86218922
      16251.11096676
      12978.85434104
      20416.33070391
      14177.94826775
      12280.45885879
      14953.27109983
      16517.95300828
      15124.54168972
      2818.93362545
      18977.53537386
      19707.90008574
      14270.20592117
      5815.61665782
      16529.63615803
      15057.47348990
      13915.77539826
      7522.59899103
      13690.41611665
      17584.21925090
      11526.84870578
      5357.64263881
      12129.02707533
      12925.37200029
      9722.70280906
      9881.62296052
      10445.07841026
      9608.07254319
      5269.30631065
      6643.61601401
      10189.90122047
      5063.12579818
      7013.75130892
      7244.34197442
      -92.38478101
      6261.89979944
      5613.82378659
      755.76669252
      3726.20783905
      2676.41375524
      1393.25908580
      2776.00887446
      2917.97912774
      2265.95401547
      -207.27088776
      198.42289773
      -32327.05726218
      39853.15862937
      6788.88579761
      21477.38322368
      15806.71242460
      24545.48711475
      19416.66185914
      19483.16632218
      16258.88570888
      8959.31051999
      15792.23890884
      23663.49787709
      22964.10391274
      7406.06572544
      12171.42932249
      13516.89828611
      19851.11466344
      12287.63025530
      7393.84108785
      10857.94823572
      15519.47365734
      12752.34767663
      13039.01864688
      19970.42306270
      15777.50714071
      11061.30757976
      13126.04274312
      5471.38752080
      14382.56241432
      9829.17939037
      14290.83858712
      19772.79028537
      20408.67183885
      11046.02084598
      10774.26600029
      17423.87620208
      13298.50874715
      10110.06102867
      9773.89166404
      16556.45142018
      13704.01298263
      4983.96504089
      9650.30430509
      12910.63640937
      7727.31353912
      9640.82759133
      11777.03519593
      8191.89900770
      6507.56947366
      8605.87554410
      8464.22661898
      7077.52400892
      7275.69289619
      7826.39056235
      3710.84999313
      4624.44542265
      5055.80555702
      2026.53826315
      2624.05986579
      1607.69857578
      2722.51975747
      4596.26837019
      2256.02530340
      1736.42167804
      414.92088795
      561.85710151
      18020.29803411
      18810.93221618
      27701.38527236
      24249.94637823
      26195.56330871
      4762.38534986
      28659.55412547
      26872.21483632
      19507.99525345
      12004.56032948
      6708.27793251
      17735.02500391
      23662.18505038
      16010.08301492
      17044.34442544
      10626.85246123
      20290.50830919
      23728.90778464
      21575.68823507
      13883.17670879
      13300.42288575
      7135.36034242
      12324.14133979
      21584.78882915
      12752.50954982
      13286.67576485
      14757.29331597
      13672.14672261
      15866.87037898
      9870.45727517
      12847.12437790
      21743.32475698
      21454.26212020
      15282.46265763
      10717.92954641
      12089.34933725
      21715.87255072
      13901.79085055
      11508.70532245
      9665.54932366
      16872.41331951
      11205.16675180
      8347.01862659
      11680.59927692
      15463.18601726
      7288.22018367
      9475.54518989
      14054.33425554
      6498.04961772
      7347.22028520
      6606.29378145
      2302.08832574
      5472.73577691
      8450.94484636
      5842.45178228
      5272.79013206
      2957.05225441
      2370.32419657
      2640.04355250
      2461.36820972
      1155.68521354
      1001.42427588
      357.31480408
      494.21885508
      981.56030615
      423.78194672
      15895.80631578
      34844.15236121
      7378.95097656
      15552.64939530
      11002.47560130
      24195.14101873
      18538.38091825
      20319.27853027
      11836.26325902
      10701.13868569
      15067.68603212
      19126.82826496
      12488.83528888
      9307.33291890
      23925.09940066
      17092.07517069
      14496.95864933
      7417.85561191
      17166.09720420
      23284.95877573
      17100.35605207
      7254.79130621
      10754.14212199
      17629.42203658
      18290.68881577
      12055.14050114
      9047.89389534
      13298.10452109
      17770.43793504
      15253.89605837
      12420.92736810
      13554.73144157
      15799.90571026
      15145.43466535
      7150.59780477
      7095.50993687
      9397.16545482
      20125.84089008
      12616.22992422
      12838.05457356
      10031.82304989
      4950.26969665
      12657.21216717
      16097.16048190
      7876.81894027
      6841.14812039
      9572.28595898
      11535.39430657
      13290.78124299
      9488.63521017
      7006.10488750
      6986.28809492
      6332.21410600
      4811.74318855
      564.02008524
      6196.41927469
      5359.36577818
      1773.63070659
      4400.15731560
      1810.50956642
      2201.93014274
      2088.15128544
      1932.71749402
      238.91043505
      -236.76335132
      592.69886886
      -21772.67842955
      20111.28663338
      22775.77145704
      14808.83535785
      35275.98498680
      19123.77206825
      3048.15986341
      15353.42415047
      13936.67749250
      12760.45666234
      19892.59400956
      18706.79541524
      27285.50296528
      6001.45409071
      23354.76154254
      17280.64708078
      7622.15368646
      13472.52145925
      18688.40402799
      29413.33124824
      23213.49770449
      11691.61244341
      9502.57712508
      19195.69633015
      20184.53853102
      18509.93922305
      9648.21669121
      5825.81811945
      14404.18799759
      13190.98649678
      7427.07346882
      8245.36642835
      19770.63892304
      18501.83609997
      1531.78298346
      10832.86596226
      22150.94107299
      13291.55805557
      9393.50162738
      5039.73612995
      17380.80349930
      15312.48926253
      5812.03402289
      12880.24253458
      18460.93410152
      6411.66582174
      7901.04207904
      8626.38952650
      7697.10042687
      8436.90137384
      7514.20510565
      8570.68005588
      5132.33527229
      10193.84219403
      7981.21727808
      975.20724581
      2293.13762619
      4285.98498138
      5572.70594578
      4633.31631285
      466.72987020
      2329.06099151
      1348.42459500
      -168.68813934
      -864.55998836
      439.00075494
      13914.41256084
      45132.59665374
      22198.72881300
      18971.33983220
      38837.50247551
      27857.11791178
      9564.70174525
      9961.09399089
      25790.32871237
      18396.35817857
      4955.17999116
      17583.36028299
      14493.76502318
      19159.42161612
      19830.99564766
      25157.90804353
      7016.44676611
      15082.50300143
      11304.96272219
      13780.50897051
      18697.71330510
      13766.87146106
      14998.16702860
      13764.62777723
      21779.83756634
      19382.35885676
      18318.70582990
      14537.69230066
      19663.70366807
      17715.27626555
      10370.83633632
      19779.63751530
      25162.67569014
      16559.95282985
      6408.54256369
      6612.03982627
      14031.71378311
      12283.92625045
      11647.17521590
      13617.22403414
      18169.81172025
      11242.87838890
      4645.33231340
      7576.11318268
      15690.13981191
      10636.30599138
      8155.16227908
      13738.38461468
      9747.18579267
      3892.23323178
      9824.64905242
      10330.35060709
      3868.94401388
      9136.59247918
      9008.94163581
      5081.03272388
      6157.09585890
      5578.84401664
      2188.89684713
      4157.94868429
      442.11151674
      2244.00915952
      2422.19411289
      111.53170387
      472.39441384
      50.57009294
      -23168.82717378
      24153.49669863
      13404.27442467
      21004.80100331
      19368.94502533
      15843.50084285
      22462.97364637
      5703.60521070
      21231.49773847
      15956.80412257
      3758.27445683
      19991.83692797
      17227.99539753
      18209.80540810
      18466.28517875
      14058.24758762
      10938.10484496
      10846.75930209
      13731.18197250
      15934.83410128
      11398.02895637
      7987.52524300
      19601.36883780
      22807.88822738
      17035.72025972
      13661.62726839
      7849.91307532
      20740.55423753
      19091.92559545
      17458.22021326
      11255.62888737
      8484.16392259
      15320.01675087
      23347.83136598
      17143.72181683
      5140.46763587
      13901.06509702
      18320.99962787
      8803.54467984
      11983.00759279
      19011.99540837
      14264.64637603
      6504.02238095
      7938.06287908
      8769.87401074
      17303.91081511
      8205.91865770
      5665.53777284
      7798.55349557
      6611.82776301
      7243.49089974
      9822.32255424
      5513.46727404
      8618.51797161
      6309.19542788
      2100.26967719
      7242.10143317
      6544.05438172
      2883.44227300
      3047.47094971
      2011.25547640
      1747.15251564
      2768.54572438
      453.71281881
      -216.93252864
      978.76027681
      19634.49808591
      13485.23938135
      12826.06084973
      31210.59041310
      28984.36202839
      25811.24686413
      13728.97454220
      24005.18250047
      25633.67057484
      24145.47112715
      -8147.94270250
      10039.99096306
      18947.63173003
      32333.28962975
      13758.53157407
      14403.97949406
      20188.28439574
      21910.66095577
      15514.00236633
      15738.69619081
      34597.09014061
      22088.89091293
      9138.17997795
      9831.16919565
      12974.42765931
      16114.54548550
      20796.86462602
      14476.23960970
      11160.27580755
      24407.14294457
      18372.56999767
      4133.22078338
      19235.05203271
      8315.70544858
      15021.01673073
      7385.35660392
      14370.84707813
      25928.05859834
      14133.05802276
      12046.02995431
      9978.05732033
      9567.16976967
      8966.27962289
      12844.53709526
      12553.03221517
      10867.00576434
      8617.88123030
      8649.83470601
      9449.89016060
      4631.14416128
      9984.22935433
      10025.87388264
      2461.25290678
      8764.12228178
      7246.67252232
      5120.04623636
      6790.69545339
      5301.51015601
      3680.67288694
      3317.05220260
      2223.54369889
      2173.20020692
      84.34165883
      393.92596715
      -156.21316652
      202.78406255
      32816.70871927
      11743.89182599
      126.71684384
      21397.07194319
      21998.70993383
      33131.29109723
      14485.38076492
      16223.05018729
      24325.63554236
      15417.70961709
      2158.99885217
      10881.87059973
      19387.51659327
      18907.28015688
      21137.17651440
      8765.73577311
      20905.02510224
      11998.93811451
      21620.68295425
      20547.84128610
      14142.72011974
      18160.40627096
      13382.93967198
      10190.43982893
      14284.55977281
      17086.96524935
      26072.02632854
      12435.06148747
      7716.42935413
      21213.64935198
      15512.21046460
      4093.39924997
      13870.97441221
      11975.67831642
      20866.34425029
      21763.93887713
      5444.03539789
      9927.80426859
      13600.51602682
      2633.67984754
      10995.74104473
      16826.79146473
      15471.89560154
      9493.41901741
      5826.13438453
      7671.58642440
      4737.52071085
      8008.82722697
      10232.30979902
      2013.94986829
      7021.95229976
      11839.16821773
      7674.34343043
      6460.50825466
      6750.64285375
      5089.08548775
      7240.20058366
      4536.37548434
      1043.17489554
      4562.76565236
      974.93820285
      2733.50283456
      2210.54316078
      1860.78494341
      -595.37486445
      1782.35327938
      -24814.22074120
      2602.43491588
      2382.78875790
      18254.22813036
      36597.59805287
      13876.42341133
      6586.80582922
      22369.44191563
      11736.61888833
      12116.56785360
      4557.03642625
      9674.24303702
      26882.89280869
      11595.46893072
      1923.15425194
      20272.23813838
      25303.37758153
      21144.15043079
      5683.39723479
      11041.75835098
      11788.03006056
      14289.20020473
      19490.51476977
      12048.20209358
      13374.90765576
      20187.34119362
      12726.31571495
      11578.49440002
      10228.47665622
      5901.09527202
      9927.14360037
      1302.42844259
      6093.30327228
      12975.27310545
      6231.50852308
      7791.15816149
      13573.16934771
      12119.90526269
      20716.80504709
      13842.56065099
      4958.54854460
      11909.66805041
      10963.80279203
      5393.51939673
      12312.41547389
      16127.35020566
      9218.63809700
      5765.93511637
      13700.86658433
      11426.89889631
      4343.04146355
      6097.81554363
      8599.12430721
      7107.61680475
      4922.26015823
      7890.42208563
      960.43419438
      7199.28351552
      4029.30795678
      3772.15863836
      2710.77302661
      3291.65683037
      2222.65977304
      2641.49821787
      -936.06590929
      340.35996769
      11731.81590779
      14673.82770260
      14104.48706395
      16463.74761133
      27364.91478099
      27840.98398915
      10274.17470125
      26869.82479495
      14763.55443895
      5789.58738545
      15508.68721845
      24214.47056704
      9474.02780871
      10899.91597747
      13819.67693388
      17585.07537115
      8199.71747396
      10199.68241466
      3679.55988298
      17167.14979484
      11876.12525855
      20053.81765690
      13110.45337754
      -752.24742555
      12332.94665571
      13538.38682267
      13673.58768295
      7680.30229882
      12154.98044187
      9495.04328716
      10603.90831594
      11394.15840262
      10090.91770145
      10072.06621803
      16389.72990996
      19999.20290845
      14748.30199068
      5500.73642184
      10235.40620552
      12507.25938540
      4447.78389094
      9392.20993641
      17433.46231756
      14337.39779125
      6526.77763269
      13081.92192864
      11161.84408174
      6234.01127238
      8626.49903094
      7041.19106495
      5901.44834989
      11091.64161952
      8302.07916529
      4653.16771419
      5064.25939587
      7297.90294316
      2041.60102692
      4421.05142019
      4456.11315230
      1976.20951275
      2180.20405434
      2619.36882132
      1014.87760602
      -59.43117713
      294.49179247
      -158.29115437
      16264.79802357
      17965.04586108
      1313.58513122
      10643.01613112
      18398.90627181
      17252.25695891
      -13366.86990208
      -3603.20840711
      22381.27039973
      20615.05312230
      2924.95592578
      -148.59879502
      14420.92563023
      18226.81362020
      14149.47015072
      5394.07506127
      8165.33322300
      13821.80688331
      16042.80985085
      11999.11412922
      12893.62020735
      11381.00412584
      16905.74055531
      11290.64600105
      12085.86822846
      8745.09121170
      14278.70013035
      25285.66196779
      11524.03927188
      7041.70944348
      12485.24452589
      21463.51619383
      9167.16271870
      11414.53201406
      13009.69543862
      16904.44673294
      1529.37646759
      859.50758555
      9569.35440535
      15416.49660760
      12431.23814236
      5994.93312277
      8702.28561024
      10176.52991057
      4720.37081323
      7401.08888745
      11996.52199830
      5581.48993925
      2820.98486242
      6289.11740190
      3637.13634577
      6404.11718412
      5129.52264715
      4037.41569122
      4898.74472306
      8606.70704736
      3998.36623392
      1106.24606661
      154.66130872
      1670.85707363
      2312.63600090
      2959.65252340
      2096.27300918
      3073.32976639
      684.46714888
      417.53810234
      -16100.64800481
      17893.63421518
      7910.02153986
      6078.70270135
      35154.88057851
      23665.05403789
      10476.24823702
      17405.02339674
      20704.34448344
      13239.85427882
      210.65565704
      4997.90234678
      2479.60768563
      9068.26129206
      10665.01282127
      10355.38261801
      18237.43382411
      10874.66211188
      11243.66697079
      7200.13854627
      10528.58201669
      8025.60407061
      8234.90631085
      18345.91838834
      15174.14557552
      18952.50265904
      10413.83216221
      14106.52697684
      11438.21955026
      9796.08937810
      15208.19125195
      19498.21640084
      12217.26164556
      4976.55136176
      6621.56875431
      10658.90081087
      10563.03897053
      5897.16203222
      7763.85363930
      7559.02188726
      5554.67322436
      6151.01583654
      10639.77652969
      12996.55659341
      5616.34557760
      3446.31321243
      5529.63046833
      5665.22263195
      10559.41690067
      10969.72572786
      7503.45933927
      4314.39455009
      731.50470395
      1230.31105915
      2832.77411923
      3463.23344350
      4655.52658508
      3971.41452616
      5260.05774123
      4592.32868512
      1205.28554835