<?xml version="1.0"?>
<VTKFile type= "UnstructuredGrid"  version= "0.1"  byte_order= "BigEndian">
<UnstructuredGrid>
<Piece NumberOfPoints="5123" NumberOfCells="5123">
<PointData Scalars="Pressure" Vectors="Velocity">
<DataArray type="Float32" Name="Pressures" format="ascii">
      -981.88838115
      6483.71546049
      5225.53597222
      -35561.77368429
      -25076.91863939
      12062.42054711
      -20482.92742986
      8983.17964917
      2896.56504116
      -37979.07088609
      4375.07763716
      -24929.46055353
      4476.57387990
      -924.57966832
      -24289.64383439
      1742.45423545
      -28172.76905675
      6819.32430816
      1563.16185777
      -19896.22698744
      962.53697326
      -3640.29666750
      784.78212207
      232.52841866
      -258.68826820
      214.78265009
      153.98357400
      392.45848916
      -2628.70855896
      -683.25391918
      1005.74309223
      545.11540209
      322.42408918
      -6487.35903560
      156.75665036
      761.71263994
      -2019.83308136
      6926.42314606
      -2631.38799615
      -1030.57677604
      -79.62759224
      -2119.11633448
      908.76197125
      646.15764239
      37.41146154
      -370.12383535
      868.76312551
      2237.33648524
      -1472.16100000
      209.03882098
      -115.49911231
      -1307.93666221
      3755.48521379
      -1331.40279816
      -589.55841033
      1324.03933646
      1920.29516114
      857.81228202
      1707.37751946
      1626.17964619
      958.87904873
      -361.81218093
      -195.98963437
      -902.67403950
      -105.91433712
      1323.59331164
      1523.38586191
      7870.37695446
      3887.22218947
      4199.55109960
      1984.60766797
      1056.87386894
      1997.48179553
      2832.57198461
      2678.19320440
      2660.09321855
      -1743.59822073
      1987.33719898
      1059.26796617
      2875.93905972
      3092.46783191
      6591.82794875
      9566.83315522
      5315.83517040
      1556.45459133
      597.05943590
      1522.49967220
      1269.77385310
      2410.23286369
      1103.19631123
      550.05684299
      1193.46790836
      1278.90152794
      3544.98040572
      976.78198985
      487.54645813
      -663.98644164
      2135.62746474
      925.17679418
      2039.05247625
      1203.18800491
      2385.45578026
      -2523.39918421
      1301.41724275
      -2667.45272543
      -1496.56192730
      2374.38709873
      5051.60736291
      -1001.95474445
      52.58579755
      389.33395890
      561.43943884
      295.54641065
      2946.85512562
      -1898.74807652
      -1846.22154827
      -814.78528429
      22.16712492
      -464.09995229
      -641.09446442
      -4103.81962789
      892.90697272
      -4934.64508552
      -3560.28001327
      -808.11800981
      -32.09411826
      -1400.96847018
      -1429.54967227
      -460.78323009
      -50.00467749
      108.34593469
      -1321.76525215
      6182.49562869
      2979.47533978
      4720.77974741
      -2862.79383466
      3434.01755285
      2976.48030581
      1190.05561091
      5932.47836447
      3670.82146875
      4706.95706232
      3498.89108450
      4438.39455970
      1760.69344104
      3040.06526080
      -116.69167437
      2101.91686582
      8234.71701275
      3086.64963522
      7266.35985154
      4849.23895559
      6325.58574083
      7206.51323220
      5262.71670040
      877.30014043
      -2913.92742193
      2570.93216280
      5065.53310058
      -4870.88201008
      6895.98438583
      2703.71166463
      371.29237101
      1481.93934317
      3769.36637900
      2854.60835465
      784.87703645
      -1096.29903955
      1691.05326681
      -1712.92031932
      11787.87126962
      -2039.23678884
      -2735.85815584
      2005.07060920
      -452.30750786
      6945.40699386
      -2176.89313875
      -1683.10757376
      4127.61089000
      2404.49164445
      3439.16230337
      1120.76459896
      -8624.12912475
      2573.38669555
      2278.18563002
      949.39677139
      4570.50346948
      1440.04987849
      3507.32099364
      1928.19933594
      921.09467957
      2179.77921353
      -537.74473796
      -295.70118937
      -573.08953395
      64.11766784
      421.66707156
      162.46965386
      2992.10492916
      2535.30186912
      4741.54694576
      4526.41913076
      1535.45345806
      4328.22390958
      1025.30257402
      2936.81369779
      -327.06466661
      77.68672262
      1733.94509901
      2603.37831839
      6112.15308814
      6956.20013693
      2982.58502575
      4172.74201517
      -4320.30230015
      1796.59415646
      2659.31238357
      2866.32996100
      811.97011026
      6513.25950028
      7030.03890228
      2386.85476938
      -994.15359638
      5093.59253847
      3174.38643465
      -5924.77350748
      3556.32016835
      3037.72533282
      -595.62892098
      1910.76130590
      985.18309576
      1341.93512552
      2949.27671045
      2770.83437585
      1142.33002608
      4374.93509839
      1936.07995380
      1308.26243481
      931.76959903
      771.38092815
      -558.93156050
      1179.44526454
      6017.33763310
      2317.80653441
      4726.13281188
      -4879.99330112
      -1608.11687060
      -1580.52484759
      1603.20324542
      373.15646430
      733.05260364
      -1478.37005245
      984.37880280
      2795.15561787
      3468.21029857
      954.22733072
      1402.56044710
      5095.02344230
      -934.34080510
      325.15703343
      -1055.18477311
      212.53568882
      -1330.29642746
      440.66186277
      4707.71329583
      3247.28796180
      12885.20162333
      8789.81549437
      2668.03505925
      11165.27456871
      4751.48149257
      5849.67793212
      -1104.16559954
      1581.87795707
      2183.07198416
      2065.35831723
      -633.26452165
      3101.66565262
      4807.32520004
      5756.44462527
      6862.69299247
      5678.07601318
      2234.97736042
      4026.13555999
      -2855.01696496
      -639.01961945
      2806.28289262
      466.86486853
      -1248.83980729
      6575.41657844
      3504.44036512
      2347.50833756
      10254.53559061
      3119.57563869
      1013.97499188
      -3218.59662187
      3383.38584232
      367.63610825
      5608.53278894
      -794.96386538
      654.15483090
      -1970.74843474
      1335.24219330
      3007.42885280
      -2885.04227483
      1186.08869033
      -2012.86534117
      4058.14859829
      6313.05964031
      3569.21885549
      1772.97014038
      -2558.77640882
      -3759.91271781
      -245.62900095
      7173.27553953
      436.96178701
      -27.65742755
      -544.68084246
      2509.91192531
      4234.97005389
      1117.35379983
      3106.50384835
      -318.20495561
      -1490.02542683
      706.48405969
      1776.61120574
      1473.65143135
      -1546.83825622
      -258.48196386
      389.42710209
      -17305.06999468
      6057.55306095
      4382.40371430
      4067.24891349
      12175.10479910
      3997.54027512
      10371.11022333
      9201.00759622
      11201.40424094
      5722.97138748
      3544.02752339
      4728.49212811
      5303.62459417
      3386.88251629
      2504.48658212
      6531.12180089
      4843.10979039
      2526.40482361
      4260.50781288
      5371.30735949
      955.13514204
      897.53405958
      -705.66689897
      4707.21491286
      7412.67569195
      1539.97486675
      511.63181964
      1854.01379632
      1317.82155178
      2179.40222388
      1434.95813230
      1754.84212401
      453.77258563
      3373.70841214
      -1179.85174413
      2668.23193505
      1578.76220420
      4097.66349972
      1601.11730940
      -664.66726415
      1700.80540547
      402.03938733
      1040.36351891
      -886.42846122
      6761.02011706
      -3875.41429272
      6306.13604111
      3759.79961127
      2308.63993275
      3123.32159089
      2237.16900758
      2328.12135076
      364.13467985
      132.71923884
      -1103.16898564
      -1402.01030329
      1488.58752329
      3124.88918027
      1869.82213328
      1640.43371784
      -1483.55035871
      -1629.12981630
      2547.37911075
      -471.54521489
      838.80583207
      -274.96181883
      -28807.02041058
      7773.36728311
      7846.30583292
      5432.71895491
      5848.11910355
      14765.98286964
      4122.88293084
      3964.70225927
      4825.72483136
      5088.23925277
      5236.86432478
      4849.54632743
      3328.14118593
      8160.27236425
      2617.81733979
      -1545.80099730
      8921.71830061
      5524.40730948
      4633.47512573
      6191.28035418
      3574.37197210
      -415.26564915
      3381.54670213
      6249.33990056
      3879.35842799
      2659.73662411
      12422.05786186
      6797.34131472
      4045.10825405
      1399.84776977
      669.14156337
      1342.54381577
      -2585.58254721
      3397.97721467
      6197.74429885
      3941.12690314
      9903.52146671
      -96.47034092
      3457.87040076
      3273.30129892
      -375.07374664
      5392.09056961
      5987.75019085
      -4819.46451361
      2903.36900950
      541.70620776
      3382.15610440
      1177.70825032
      440.21327964
      6497.49281113
      428.29166109
      1452.66494074
      642.08890434
      -4047.80951564
      4228.16542715
      2251.54838708
      128.84838538
      789.00180618
      4991.44443880
      204.52914865
      1703.99335130
      -3.20734285
      2664.50644385
      -1656.76420575
      -352.64677159
      322.41635443
      11618.94899251
      4517.16686211
      3361.77998950
      1546.78309593
      2583.01454348
      3077.67790114
      9288.67124206
      4079.73647160
      4210.28073839
      4279.05582283
      4670.45872631
      4855.60267048
      3535.98123708
      -2691.87275213
      3144.88515237
      4273.49274143
      713.74808541
      2880.40544077
      -434.90296868
      -1181.34057927
      -3511.62216370
      2789.65172277
      1677.09960005
      4772.48102229
      8572.22989870
      -5599.30610840
      6363.00007857
      1049.27849545
      970.39216960
      5703.06648456
      7565.51982839
      -605.60186436
      3197.97306588
      104.97993382
      2934.75879129
      -836.79062341
      4202.44831203
      7174.47241362
      79.61312018
      249.58130423
      6713.27535878
      1993.62939751
      -799.12555565
      -563.55590208
      2679.34676982
      4068.96837315
      1315.98498953
      1793.35196110
      2668.06382503
      -424.01103898
      2261.62437212
      2766.62469243
      39.36507469
      974.72592178
      2340.51130605
      1963.31524180
      -137.12051020
      33.71648012
      2598.39367487
      3048.83428556
      -244.98865587
      781.05214405
      1717.33292135
      -3317.94316539
      -1422.81544961
      1188.29673592
      -18063.76538625
      3301.91408039
      2005.94911691
      3739.80949891
      14609.76649464
      5770.24193420
      5024.97884306
      8138.31163438
      8656.29996791
      12162.04705433
      12479.38154133
      3244.82264406
      -919.31744692
      1884.38155637
      3558.86019560
      1936.56645104
      5768.87355394
      1167.49267798
      430.29796390
      -3512.47612503
      11021.81264919
      -1225.37046544
      5685.86809881
      5136.79833760
      2446.71726979
      3607.10654615
      1939.78871457
      1573.53095429
      2252.66073938
      2994.52731912
      2400.12299988
      3043.99545408
      697.75968015
      3828.30682746
      2913.59168056
      -743.50208577
      1598.55345479
      4203.56765579
      4535.26930848
      2110.14839996
      -1143.59916002
      -1186.45003339
      -1941.66255313
      5790.28239548
      2859.81746956
      1225.74435280
      2649.91254750
      2996.86257188
      1076.79301752
      1464.84421333
      5089.07078749
      -419.98476319
      -1299.34107175
      2029.65117985
      1747.07267555
      2186.13134323
      1275.30559282
      -132.45051612
      1581.84428585
      2011.21794513
      1806.86670166
      2201.13613666
      3946.54416646
      -1663.75513425
      845.95910086
      1266.37281374
      -35532.71009678
      5331.15793013
      17398.59532130
      12986.52662632
      6117.73631434
      12591.51390495
      10922.39975188
      1617.91632714
      4736.41739159
      13901.09671355
      4019.91100560
      940.78286646
      -631.41477544
      570.43165660
      -1687.25023487
      8325.61904155
      658.10318136
      2194.09981024
      4617.91167666
      6271.68844415
      1087.10945035
      5347.76283750
      8130.67086686
      6169.48421462
      4312.68690908
      219.00144419
      4442.58385479
      -913.38657085
      2321.79155573
      5455.78247046
      1046.99338059
      1873.98290725
      6757.38610327
      2831.36398289
      3117.33895395
      3026.36136978
      5104.18087163
      2733.01066268
      3253.28480635
      -1641.55666795
      -230.10560286
      1697.28194691
      2759.49013709
      1384.89155138
      5701.32128287
      2626.54525185
      954.99411477
      1217.25675182
      863.56292538
      1889.74335026
      -3.21947641
      1104.61816552
      1504.10679565
      655.90546066
      1548.76017012
      -879.57457424
      -503.82488670
      -658.35131944
      -448.55486634
      1562.14712542
      1861.41128306
      1102.13096357
      3752.37966130
      -1715.35985417
      287.95075613
      516.40879784
      -32327.05726218
      10335.17189066
      5610.63278465
      10782.28225538
      10237.57568985
      3202.37408667
      4527.06475532
      -838.46945766
      3018.67701757
      4882.24606753
      3512.74524676
      7842.60862573
      5315.17721719
      6015.58567280
      -5034.28378997
      6828.89668150
      -1838.81651825
      2621.76465778
      5381.70000035
      4510.47733285
      -411.10518503
      1257.70121587
      705.55590503
      5432.35935656
      2076.49654234
      7162.90530826
      96.03228517
      -2039.50659919
      1869.22224868
      6326.97118868
      2612.25975702
      20.86905213
      1942.52951925
      5606.93648753
      2023.59791994
      -620.03700987
      3066.86543925
      2832.63388909
      1209.97231042
      273.91682075
      2461.66416745
      -1439.38373505
      4913.98825035
      7099.78720334
      4565.43579038
      2913.92493076
      3666.64286453
      -3593.53607117
      3057.56140382
      1560.23371221
      2359.25660938
      124.72256685
      753.70864827
      3061.02900100
      -358.19747396
      -365.51338141
      -626.00145922
      3574.55093703
      4866.93203585
      -1354.82474167
      2106.04799791
      1139.75194924
      -407.35324134
      -424.85461886
      217.02854417
      1375.50355974
      4424.56370287
      7715.63558327
      -2658.51394645
      2926.82189048
      -219.18754803
      19164.16792077
      9917.14349839
      1345.34053039
      7254.22230494
      2415.26450261
      2276.52956915
      7107.49525054
      1466.14800019
      8316.73720291
      -1833.97829163
      384.71370945
      3000.94546544
      4085.18157801
      5332.70337651
      5298.55819257
      3347.82903653
      3275.10259376
      2052.49068286
      -170.14467742
      3369.14079692
      2304.46365330
      167.87335836
      1259.96785341
      3525.76109425
      1317.88829030
      -2253.68452048
      657.98594028
      6752.62306313
      2995.21583529
      -2127.95363966
      3447.47890141
      3411.15190394
      3399.27986184
      514.96052480
      3130.40900390
      3194.03526502
      16.10475164
      3164.43694363
      6152.27664200
      4440.12719214
      2920.58137836
      2569.91241744
      671.32628523
      4993.25031379
      -744.83272022
      2744.85306963
      2289.37673594
      837.39534225
      425.98800226
      -543.39175860
      3919.04071771
      1344.30258495
      -1341.61230251
      458.33318590
      206.92232480
      848.19391109
      3957.75127363
      -2400.75387649
      -124.07262361
      -91.85443019
      11119.02470726
      5422.15506545
      10809.17288934
      1335.13490785
      8134.92634650
      13498.85688039
      -3131.79796622
      2645.45096347
      2082.94813660
      8680.11506459
      -302.96717404
      10636.50107190
      1635.18264825
      3586.07033224
      4541.76367338
      1886.10893852
      1436.28684634
      3502.46186327
      491.46722824
      6626.11327747
      -6626.37622259
      4127.73176656
      141.10323848
      -198.73088539
      1161.67510139
      4219.05110006
      11201.85247149
      -2841.22890608
      3984.10672679
      6896.32583224
      -3168.53002988
      4659.29516167
      4635.60217149
      1982.50426275
      2456.82035326
      2170.42570943
      3189.13109810
      -745.33207836
      2111.85352185
      3791.09202293
      1235.18100305
      941.90123594
      1311.86745028
      -122.46305600
      1647.05807114
      3563.61629162
      1424.36636935
      3625.02047995
      3416.46925890
      1985.87907478
      1283.03233700
      30.57430014
      2797.87532924
      1633.14090156
      1605.95519540
      1513.59570582
      1192.42765903
      966.96044853
      1831.77352646
      128.63977737
      -2065.64930677
      1193.67818292
      3169.77060767
      -1370.61846880
      1040.30456968
      1729.97459381
      -5024.74171258
      12706.30879411
      14925.90709613
      4607.19095882
      5682.22996650
      2044.15168410
      4007.16832628
      3067.94590808
      304.74463979
      1844.38773965
      2505.94853521
      3240.51033290
      11938.67112507
      2479.79535939
      4595.02039052
      804.24100409
      -4113.28463196
      3415.25386976
      -1898.18473082
      3382.91095032
      -29.82050960
      -830.08920298
      4190.26260209
      7992.64937323
      1235.95960900
      6438.83089671
      4154.19984223
      -682.47837867
      5062.77520271
      -861.58653963
      -1817.40447004
      3478.77238452
      6103.51147467
      -1591.53553396
      -452.53267938
      -1331.94524826
      539.28894043
      3965.16001754
      -1781.99032936
      4555.34841039
      2267.36457305
      1257.12469055
      -295.58733871
      2047.67942401
      1568.31435024
      2514.18748522
      4602.53264383
      -447.56916567
      -142.38365275
      1505.58591116
      -338.88053542
      1901.88681679
      1140.79885926
      -318.08142597
      -1099.02087287
      1048.85807869
      1991.06783380
      850.88898861
      1622.96299146
      220.08004339
      651.97695709
      3395.20345161
      -1454.75553162
      -1164.05473820
      -45.53105786
      788.83497383
      692.88362689
      26030.78234127
      12209.41782689
      7747.23669494
      2424.99136842
      2994.14911688
      5525.03659668
      3262.91864904
      9215.70341902
      3860.70660290
      576.37327147
      1939.64122226
      -1840.04754253
      3009.10373804
      4917.03579805
      2376.24487732
      10410.64257378
      -1867.60361601
      1087.45171262
      -2463.43423707
      -2849.36018858
      297.37392400
      2412.78914034
      529.53308462
      6152.85879569
      4804.62721019
      4266.18898252
      -3252.01501519
      1780.66550102
      2988.45525723
      234.94086110
      1362.73557875
      1581.95259830
      631.78279213
      2730.03419038
      -58.72648633
      -1277.95675010
      4254.18173814
      5658.44919548
      915.95422729
      1022.31553658
      -566.35273186
      86.20224319
      2422.05169599
      4865.90931241
      102.66559271
      1996.60600437
      3165.46277502
      625.95966563
      1823.90460267
      176.94823374
      12.07438870
      664.68169584
      612.77555867
      1568.39115159
      -607.36572828
      256.68226340
      1289.08871747
      731.24303843
      1349.94730634
      -82.41408283
      415.71185342
      3575.60426073
      -883.24538023
      -218.06146760
      814.26486261
      762.67498683
      6686.61950231
      4703.98826041
      7227.72513321
      2987.66835053
      1605.89212300
      2056.76987010
      680.68480276
      5266.42060502
      1922.24002405
      -1152.15802530
      1788.76248640
      -8079.40324678
      2545.68459354
      10091.94330025
      12040.47582451
      2030.83265813
      2442.49670113
      -1113.54361771
      4402.13980381
      4474.27025408
      1430.33409489
      2547.03337925
      -2088.23919624
      -740.01560305
      1530.59538544
      568.77152755
      2494.65774498
      -135.00749185
      1740.62382708
      1916.16622348
      -536.32398172
      4451.13985935
      -1016.87593523
      2299.65992179
      1727.41805059
      -444.30843171
      -801.04346867
      1581.31386181
      -497.70696554
      1828.92465157
      -395.24683057
      2236.63479866
      2636.89099459
      1462.73445023
      -1490.77228929
      2262.34417987
      4689.27344203
      2074.61629008
      981.50499111
      1378.19658587
      2817.90427583
      306.11549342
      893.93925817
      1208.89809162
      1500.18316559
      1104.21192004
      1269.49247143
      -973.95848301
      1487.78676227
      955.39182713
      1609.11194086
      853.14761807
      716.54862970
      -625.58096713
      -286.32255950
      -196.01648721
      3817.87145301
      2872.76063684
      4895.91305261
      6710.39559704
      8521.29635886
      2328.02281068
      5347.00565884
      1280.70711336
      163.44248410
      4634.86592500
      2553.33843827
      4288.74618897
      3029.37569268
      2590.04708789
      -3655.40939994
      9322.03562782
      -1729.85049483
      1086.45261841
      9423.45896909
      6701.18126416
      6084.45638485
      5619.93001820
      4780.27605924
      -532.45648401
      871.22519283
      -1178.92015511
      -43.25515328
      3091.47258886
      1436.43132813
      4453.43593293
      -588.34079951
      7629.80183984
      -107.28683526
      3700.60472344
      2502.41347620
      -707.97558017
      -5265.31023655
      -1181.87209113
      1165.52945553
      1828.13118625
      4465.00156053
      3305.88698429
      286.72624806
      -903.59777090
      598.36510908
      1047.13848920
      -690.82141516
      2061.92118997
      4930.73765828
      1570.08854982
      1438.99699814
      542.37021989
      722.65746576
      -802.58588464
      -15.56203145
      -214.65586280
      1059.23127481
      1211.45018064
      112.51251474
      -538.78493418
      547.21073097
      -1051.06423924
      -650.88756434
      115.68762166
      289.32308278
      198.31203332
      4539.85615791
      7142.46192261
      18705.20893937
      4690.61971939
      2881.67698955
      -4894.96187868
      650.86053876
      6994.07452393
      -293.24435921
      3125.49323300
      2383.72066497
      5155.49687527
      4946.87896842
      3893.62869362
      5019.70853886
      6323.68230280
      631.84587444
      -1283.27839091
      -13329.03133129
      -2788.55725932
      705.65124433
      -1772.56537017
      4948.34987168
      5086.22594426
      5194.11018903
      7595.46052548
      2266.72814305
      5176.73618785
      -2526.18852615
      3665.74057853
      2019.11932109
      -2205.64292437
      1139.60154589
      242.75793648
      2134.69063110
      3742.37184424
      4448.43129211
      -117.68008158
      -1811.72366912
      2399.16831698
      851.89843694
      -3821.09156933
      3788.32100034
      -203.31226058
      1893.83219269
      -2004.04561914
      1296.05474807
      -245.94610719
      635.79572541
      2625.35334170
      2818.15091637
      1099.95340031
      1971.85804991
      764.78971394
      1231.47040652
      1672.78839457
      853.52208309
      2139.43859439
      786.70100665
      902.31065347
      1849.65767390
      -727.28127684
      -150.64523912
      -263.41243169
      257.07977272
      335.34445859
      9263.76030351
      7145.70714229
      20536.50024534
      3093.41063048
      6619.99689803
      -759.40635208
      2131.18790763
      5370.16513511
      4280.02119739
      4416.04358276
      6510.43223813
      3139.88362992
      5080.63044843
      1957.23552980
      -1408.24720296
      -5127.84545829
      2765.27149108
      -7873.95319459
      7513.45124297
      2802.75644056
      6587.22227903
      2706.24089109
      1715.05108774
      236.25105609
      -4318.27830900
      2926.02284933
      833.75953315
      -143.21617528
      -1949.70466367
      11049.63688911
      7727.23764415
      386.57433259
      2778.22933146
      -448.26080438
      71.31675935
      2041.24631715
      -2451.72413782
      5861.16308021
      -3080.55210765
      -1905.31038552
      -946.73038216
      -729.02659515
      2083.63729586
      -1127.45834132
      2236.74983380
      273.48888241
      665.85604413
      588.60545785
      387.72607683
      224.48981583
      1719.30537435
      195.12689849
      1182.88191496
      -1672.23843439
      -258.64401911
      -242.60928057
      396.29518910
      2632.71393376
      312.07007709
      168.18678734
      -1299.61913756
      270.00402808
      93.99168775
      208.24897770
      215.91025264
      41.98060226
      14886.62082930
      2303.29384250
      4227.03958333
      3086.91836695
      9025.47543947
      5132.39134374
      631.23701790
      6582.86792232
      8625.90174697
      -3181.20043470
      7094.35735449
      2566.50759597
      -1987.43107397
      2385.76900215
      -5055.73961751
      1765.46877915
      2213.64873693
      2762.32879924
      9261.32663692
      1696.05443494
      7706.69291435
      5585.93379700
      9475.51667722
      2075.67786578
      -3576.41627158
      3578.27909762
      5868.14814683
      8058.96280371
      -236.90393378
      10495.88895185
      -1648.58278714
      1165.60207036
      6765.33846663
      10895.21645334
      -424.15735516
      4110.16752681
      -7192.39686444
      -7210.97136858
      -3090.81136918
      5034.44850015
      -4977.69506131
      2570.79953116
      73.83952617
      680.89680272
      3028.69101932
      2812.18247351
      4122.79106780
      355.44536191
      1058.80991495
      1337.26066636
      1018.40370481
      2063.52820242
      1030.35387343
      -1345.47897608
      856.74029887
      1116.12001123
      451.52914823
      597.39557939
      487.43027712
      728.84734525
      -1284.83733122
      694.30582547
      272.22693430
      284.58021720
      82.80778511
      215.70454557
      -10991.97190151
      2435.06954206
      1397.33902444
      -223.45097516
      2968.07747660
      5847.02266705
      4088.50727594
      8991.56730257
      13595.65233945
      -958.89743198
      10752.08370489
      8828.44290560
      9005.04339798
      4818.81131134
      8907.75183835
      5189.76277047
      -3970.18445252
      -12785.06405629
      14790.75381027
      6006.74046339
      1231.34761737
      -1600.52486538
      -946.83204020
      2819.89063271
      6545.57352572
      3250.31524863
      6538.98432856
      2238.04425817
      1764.05821812
      5264.67181297
      11393.45916096
      125.62160073
      7473.65955015
      7259.48161914
      3570.12820533
      3216.32170063
      4654.12138654
      989.44838069
      3638.22920979
      -1710.09146226
      6088.74281908
      14849.64256087
      4935.08029452
      -1416.69980737
      2277.07915856
      1369.60296138
      2592.25786114
      2703.09863780
      5077.45506181
      2470.97906043
      1300.17587066
      1603.26872999
      152.65475775
      2445.79512845
      928.66447975
      -1856.75376988
      336.29394215
      91.12687298
      1714.98183348
      673.75534393
      385.74841671
      -140.65886644
      326.06640954
      322.74597474
      111.94044203
      417.18257446
      -19965.59071168
      5176.15822048
      218.24791476
      5730.68990317
      4720.37571133
      4795.55417189
      5831.93001451
      1813.37622355
      4160.14084742
      5062.25516379
      7944.58252366
      4298.78412704
      14611.60785182
      5434.99877989
      5997.73589212
      6061.28963741
      9102.19636368
      -289.27196461
      6711.20264037
      3467.78002744
      9980.11136901
      12184.90464517
      3353.86699400
      -579.98395125
      14287.87680003
      1889.07486052
      6701.12132125
      3815.09582084
      2635.43666589
      5252.32037000
      11242.24096488
      1246.78184935
      3757.62898764
      6774.76526018
      10745.81648821
      8829.14636440
      5091.06493315
      9454.53660826
      422.84278165
      5996.27597061
      566.72370201
      -3930.52635514
      -1019.74833862
      2489.14490250
      -577.54393551
      -4368.02591739
      506.39147922
      -2986.05080488
      -765.36936107
      1940.70247646
      1369.83459513
      -1762.86299310
      1859.42464254
      2602.98449176
      -38.17311650
      808.52134583
      749.64196419
      -24.09202383
      793.12152913
      -108.64198787
      982.43217083
      92.05593409
      -1354.55791039
      21.10192753
      1142.58191952
      40.82952469
      -20679.69231914
      2873.98226457
      2488.48713037
      879.38536754
      1244.33582973
      5592.48213134
      6577.19119594
      5682.17498312
      -5154.92027574
      12871.07502628
      1610.84964046
      7985.33390054
      4090.90066697
      10397.91949285
      14889.82768039
      545.64576018
      9509.91331451
      21530.62819707
      3367.44291081
      7722.94999032
      4317.50090065
      8642.61290651
      3413.85375095
      -864.69410255
      4138.60613711
      2740.54667827
      14717.60039058
      6116.31781276
      7853.05393087
      -331.71868495
      -4748.06251986
      14001.61710705
      2595.87256765
      5245.85013389