<?xml version="1.0"?>
<VTKFile type= "UnstructuredGrid"  version= "0.1"  byte_order= "BigEndian">
<UnstructuredGrid>
<Piece NumberOfPoints="5123" NumberOfCells="5123">
<PointData Scalars="Pressure" Vectors="Velocity">
<DataArray type="Float32" Name="Pressures" format="ascii">
      -560.42775098
      -6446.68321217
      9720.48087601
      -35561.77368429
      -25076.91863939
      -270.03215957
      -20482.92742986
      16354.62018943
      12956.52234456
      -37979.07088609
      19232.51086254
      -24929.46055353
      -14445.87342015
      11767.21535572
      -24289.64383439
      7326.10027614
      -28172.76905675
      8117.66698909
      6392.86181835
      -19896.22698744
      10239.54198498
      4165.65494819
      -8249.79542434
      5943.81505047
      4403.07011552
      6501.55172107
      5793.12952978
      2825.53740566
      4355.40269435
      -142.04470541
      698.34603661
      -22995.62741681
      5981.44863739
      9442.76001273
      -4141.46130837
      6747.50261309
      -918.19494198
      3240.65427716
      -1741.04382513
      6729.36976069
      -5440.82678206
      -106.25141636
      993.76100846
      729.42931797
      -3951.58462702
      10169.02054458
      -2663.53314582
      -1594.08601930
      -1935.15849325
      -1387.74925769
      -5517.19189230
      -4061.00016008
      -939.11204393
      129.09383937
      -973.49309409
      -14.82131677
      1127.88254977
      240.68318737
      -77.73884473
      -1089.19686494
      -1493.18221871
      -2781.38424651
      -27.88629018
      1807.71013789
      767.10098370
      1225.42352052
      6158.81738659
      25523.03957740
      9200.59395089
      8365.97840304
      2883.53815625
      3757.91713458
      1817.11646721
      2853.65693580
      4005.42458134
      4615.26590161
      5025.30861247
      4795.26727936
      4360.02377784
      3201.62367768
      3966.21353972
      4624.96690071
      12074.69291517
      8558.01148556
      4362.25926339
      3658.79257495
      2381.79672787
      3204.69629927
      6504.97965850
      3135.27587337
      4063.68027912
      3711.07638054
      -3268.18535105
      4044.73650371
      3299.93275375
      2021.80767204
      2204.25988674
      2173.51784933
      3170.59825587
      611.90227725
      3429.82023829
      438.42545049
      3342.62096946
      7.95474430
      7234.98437960
      1.44134250
      -2137.80743927
      1664.25348046
      3073.82591771
      -2403.50732263
      -2911.34348765
      4398.60106814
      4120.59447256
      -1646.55140038
      1111.16563698
      576.97903601
      -9234.76869865
      -563.15383053
      6837.11664634
      -8872.50913233
      -1341.64494347
      8219.26644747
      -10395.69768171
      -3514.91278562
      1578.77751028
      5294.56289521
      -487.04380928
      -785.56850771
      -309.47055396
      -807.29147035
      -1599.26466700
      -640.74282607
      6355.31734563
      6191.64790898
      14705.34088154
      -2951.57639441
      5442.90729877
      1208.85661250
      3676.02651329
      3701.94239824
      7828.82850330
      6275.13549698
      4874.93555768
      2395.69003243
      5080.47551914
      5962.93266208
      7576.24101162
      6053.05708898
      6962.80730175
      3289.21741197
      3764.82056795
      10242.18731733
      11970.34672816
      6162.37845971
      4340.14086689
      3150.51069557
      5465.40899506
      6130.94331645
      6603.36715541
      2423.26409880
      6706.60628618
      3067.46109839
      3352.99218350
      6080.24100570
      6130.59664651
      9480.48717615
      5134.24721508
      3154.87510355
      1235.77296913
      3660.51658565
      2772.00560818
      1359.72308481
      -525.39765331
      4349.19893021
      7205.05938495
      -7846.33467484
      2576.24247967
      671.27404878
      2722.75082700
      2911.18714013
      -861.05002107
      -1360.61963109
      12328.71443689
      -6337.41412058
      -1426.07349447
      2679.01988983
      -948.84419712
      -4428.22277523
      -610.39790734
      1653.10899403
      2682.13392532
      -189.59940159
      -3045.50398852
      1293.79910649
      2178.39033618
      1134.67070982
      -1765.89959868
      974.50263703
      6410.63070204
      10446.05414877
      1268.29529944
      8113.23261692
      10096.57949822
      5617.40095767
      14003.09842322
      995.11408907
      7140.74047642
      1345.46171488
      10431.32390957
      16935.90075097
      8642.50789844
      5218.05278812
      10281.86032208
      5736.44632095
      7403.19573853
      7550.99548366
      7660.05315123
      6205.15164983
      5304.27256866
      7520.91236994
      13646.12173236
      16100.99659085
      6512.65302558
      6898.44841510
      6043.00075401
      2237.91439720
      3615.09220441
      5496.40009647
      4833.36239143
      4027.92388190
      5062.56098971
      7039.59953346
      5653.90160224
      1192.21993450
      8108.16885370
      -87.77099792
      4729.95277146
      5052.24706442
      6847.06863882
      4152.78928713
      2741.66178225
      1519.01825846
      5868.66545033
      3534.10589663
      29.95358766
      3382.83366532
      7589.43669336
      -1192.70130676
      1473.08400189
      -1306.58807410
      2409.39533282
      1116.98067369
      560.23814253
      2535.58240865
      899.25661808
      -180.55054827
      -2680.79146722
      2010.94981598
      -101.84262684
      -1616.47258601
      -126.45648233
      265.89570021
      -1013.43644378
      129.94475288
      8435.48261292
      14128.11171188
      27303.86830624
      18035.98279315
      8759.16477715
      13739.95159371
      13070.90079210
      17747.84670293
      4010.41020729
      11922.16440282
      8334.19500183
      6874.26008470
      3299.52322656
      8965.71501168
      15816.91753763
      8887.09932207
      10143.42231849
      9451.25298363
      7848.17817907
      7355.56850606
      5721.96438490
      2466.75508706
      -272.58061098
      4171.29560842
      12434.36984832
      18814.10241901
      3906.37907846
      2945.27463390
      6613.73289097
      4574.23579488
      6819.27161988
      5673.34267542
      3170.71580223
      4833.11876829
      6455.16003094
      1719.56966208
      10417.02848350
      7430.22679438
      5057.62299959
      5301.66927015
      2739.05837946
      -3489.48739086
      5650.39886610
      4537.92988475
      7027.09596346
      5946.76576111
      1066.27392698
      4409.66664621
      1916.45983347
      3477.18330921
      2785.78306512
      2802.43270968
      3464.67726106
      -1251.65839476
      2118.30609414
      -1310.25682414
      1896.96884441
      1208.88844736
      1938.37449736
      1398.12053753
      761.91107722
      4125.23257376
      -2147.30779042
      1376.77886356
      -769.17781773
      1275.21163052
      -17305.06999468
      7191.24313337
      6384.24634394
      3430.02053855
      11536.95603306
      5170.26886849
      6647.31657235
      15150.79900964
      14111.45889896
      10322.33243187
      11652.72507699
      6046.11890127
      5221.60683574
      7045.23568119
      7253.80951050
      6756.74053987
      12158.62746583
      5359.64491575
      9366.06255678
      9284.28956193
      6626.49617711
      6401.12282351
      5274.27572126
      14217.20737457
      7125.55502891
      2715.35695922
      13147.73409794
      74.59877621
      7826.86777516
      5412.46041397
      7487.74255286
      5951.26366555
      5114.58946097
      2846.36852396
      5123.50474147
      5411.42575324
      -1153.36088213
      2421.36287209
      6081.17864967
      5746.33586924
      3832.56388969
      3818.58540349
      4439.01256206
      1697.88336443
      1369.53060117
      10041.97894572
      2318.88221604
      3067.47999102
      5425.41603224
      -1907.63940876
      3750.06836594
      5170.49858598
      4167.46877964
      1323.34394778
      876.18147055
      1963.44312456
      4006.46692240
      2208.86068629
      -1902.29915139
      -2655.70067646
      -253.74502873
      4025.35341532
      -1084.04517436
      1468.13705284
      -465.15392100
      1025.34277695
      -28807.02041058
      7599.13722886
      7675.80196438
      5728.63148847
      8206.93984920
      5102.93087701
      2657.97880898
      2881.49402607
      15853.33112876
      13537.88447197
      8326.63839011
      8326.63829419
      5659.02951194
      8267.78596143
      2488.16963388
      7168.90750590
      12216.08254770
      5460.94643927
      4807.77981205
      7246.40692253
      4358.41918826
      752.72795892
      8006.91644606
      9384.09422962
      3175.33823709
      6975.26167628
      7446.89004183
      4713.01042073
      4253.48528534
      5795.10984675
      5482.58284610
      4586.55267720
      3110.99149088
      7601.73942941
      4532.78845094
      4968.84156042
      5984.04326622
      2099.49603307
      -899.27571133
      5299.79592831
      3426.04497326
      1759.52818397
      4878.11262472
      4028.83016875
      8009.47693298
      3920.92027286
      -2306.19249008
      5204.51356060
      2974.39803474
      2444.79194822
      6242.60972305
      -148.95438385
      2743.31908036
      3903.83283235
      6396.91866890
      5603.92840221
      994.80081885
      3047.68852361
      1867.71061253
      4629.59176957
      664.81838893
      2516.07862601
      856.41177673
      4043.25103803
      -443.61137089
      2297.72511447
      12750.34407263
      14134.54729013
      5702.86964483
      1763.01659463
      3117.02975732
      3890.80027788
      6465.92581744
      10350.01297596
      26125.22739762
      11016.56398381
      4384.12765636
      12151.20109166
      2778.03861537
      11532.38042871
      6188.24621084
      -474.53057662
      5575.69324431
      12187.11883220
      9743.70002800
      4647.00683685
      5112.01745046
      6586.27099446
      10854.68513105
      4521.75718153
      4017.11990046
      2059.26994364
      5710.28773127
      12162.34555032
      3991.69500403
      11342.05226490
      8745.69793442
      3053.98066468
      30.42859049
      4606.29836450
      10705.55022262
      6782.09218952
      5622.46861731
      7561.48156636
      4142.96455926
      5499.87652619
      2968.95947412
      3829.42842721
      2223.50166242
      5337.29341396
      4143.32345465
      3367.03381534
      2521.33911170
      380.51254765
      2516.73694060
      2381.62152865
      4743.48978904
      5268.08331414
      4771.13582250
      1598.92642593
      4629.57092089
      2288.48127869
      4586.71292155
      4385.61568275
      4728.61984578
      6838.66818093
      3267.20222354
      5346.07494700
      1257.55504188
      532.76918412
      457.45317552
      -290.04238486
      -18063.76538625
      5703.30011068
      4139.59887590
      10242.03493876
      14398.78522457
      15441.32635688
      10049.59977397
      8807.97481343
      18174.91944166
      8155.39305667
      9022.22036093
      8090.57903815
      7027.30173325
      2149.56359305
      10607.76037061
      9765.25596619
      12149.83774187
      7961.72030470
      11085.00636367
      4246.60782333
      11459.99834817
      12153.68692967
      4627.79355245
      6069.21182502
      5900.61170979
      3878.66498885
      5046.52038178
      10229.41162529
      2594.73134735
      8502.65319385
      6444.93880620
      4467.26943196
      5061.41724133
      5335.57627006
      2702.26428324
      6303.13047770
      5921.88471866
      6436.66125439
      6406.00213005
      5084.07397260
      2036.32309604
      6931.84546264
      3948.39616652
      5232.94888840
      5783.41884654
      4456.62928937
      2989.29924294
      3338.60735151
      3992.45556253
      2612.49712296
      3031.71685896
      5543.12474930
      4578.50630396
      3350.59712358
      1881.45970318
      1434.88679399
      6097.21708781
      4440.63330721
      3936.34173297
      3227.97528463
      3003.77615911
      7040.91929086
      1204.29729246
      1947.87859668
      892.15414512
      -226.97493477
      -35532.71009678
      11901.63072911
      16620.06136584
      14668.53442667
      -705.78343700
      4760.06246069
      3653.62860132
      25221.04707913
      16880.15392787
      16229.63509032
      6930.53872525
      7731.93180858
      2824.88069154
      9718.20547446
      7731.03728240
      9617.70948277
      6306.94286441
      19782.99851745
      7544.20244603
      8539.63932221
      25.21938063
      3444.62903985
      2449.79266071
      7721.86763633
      5336.75789820
      8904.86531889
      8017.83887521
      8351.96964430
      4071.31922228
      7549.59845177
      4087.64687382
      11838.03371547
      7093.75125268
      5384.96058821
      1287.65300253
      1092.77927679
      4516.72653620
      7434.20075555
      5162.58497776
      3283.27273446
      4615.12120406
      4986.96004122
      -2287.80941442
      6767.10230526
      4997.41821692
      2922.79464314
      3065.84865268
      9585.60649757
      668.36443695
      4357.40714762
      4155.87759583
      2401.22269641
      6317.26224508
      4779.55955087
      4777.87773724
      1182.24206817
      2558.73276806
      7616.04463463
      4336.21207558
      3182.49993852
      -80.75528131
      5451.68428791
      2679.43778260
      3624.25554005
      -289.84179299
      2058.46527108
      -32327.05726218
      20960.37278139
      7596.39054461
      4674.47038297
      10402.62599564
      19433.82580706
      13801.54335017
      7395.16261135
      6999.28680824
      -1644.41335806
      9481.82503093
      7694.39752753
      7012.00335681
      7568.50007918
      5383.61794067
      18081.15187957
      14724.37800958
      6802.01357939
      8060.48035881
      2048.73465502
      2781.27383567
      9507.58083011
      6042.60792691
      5687.99754955
      2426.04078272
      2635.42911420
      8640.54033004
      7761.61222140
      10761.44302623
      3175.93391855
      1212.49228335
      3907.59842976
      5408.25898503
      6351.81708986
      2931.37983343
      5799.58275707
      6394.52390950
      7293.04422068
      8763.37914215
      3369.99914909
      4848.20153864
      3138.21550855
      3735.02048456
      2331.93837666
      4154.39405626
      4730.40245300
      -261.83542236
      6324.82779195
      3021.26299878
      3895.54192786
      2572.39091160
      2939.78165693
      4202.28509729
      8938.72487951
      4952.30245300
      3565.25261143
      3784.78016269
      5898.08921976
      5071.62174986
      4295.34615568
      4138.47678822
      1946.84399160
      2539.76915220
      -1001.58615230
      1190.78537617
      930.66876159
      8834.26635236
      7184.81892277
      3119.01154851
      11046.09750846
      5403.88241298
      8923.95460421
      9811.59166792
      6102.51196685
      17370.69602950
      11000.78730992
      6816.97405253
      6301.50732199
      2933.21640868
      5514.56557615
      5507.87986293
      8450.13851673
      5510.58588238
      6086.02461297
      1891.18082414
      6698.00697916
      1829.65311504
      7711.62072820
      2702.55152690
      5806.57989191
      4452.02297712
      6413.85200774
      7007.94486381
      5124.04377247
      4326.89953793
      4895.82767828
      9985.51004105
      11483.96486497
      6253.62369684
      8705.18170640
      3479.27521623
      5165.73814624
      8293.62207736
      4937.33465155
      6648.19239779
      5323.23951216
      2053.33496528
      5979.31364412
      7767.32885411
      5560.80732269
      4925.23490280
      5535.03158285
      4851.84518119
      4451.27606227
      2190.61809168
      4736.28828028
      3769.64221647
      1028.57470054
      2486.32028564
      5698.69999554
      7914.98900981
      1532.58678933
      412.90447396
      2642.81483903
      3519.67510676
      5351.73534764
      4547.44218104
      4360.48289990
      2110.57813664
      245.35182422
      646.15574418
      185.89465239
      13222.43296343
      10844.75324197
      6281.41228239
      12982.76511170
      10977.52309432
      7457.50211676
      6628.57958859
      9039.21020225
      -487.32225285
      8757.60409437
      15214.00981029
      10192.52199105
      78.12620964
      7011.51726823
      7363.66657485
      4629.12966258
      10631.14584595
      3155.10937636
      3200.91944903
      834.23333310
      8676.24679462
      2096.06285655
      1955.65027216
      5645.53353196
      1602.01469655
      6522.66040086
      3555.28498813
      6597.42323484
      8153.78347231
      6053.88585767
      3639.69208596
      7921.33306765
      3852.74495225
      9220.63891204
      5684.73034731
      1064.84516087
      5034.49009093
      5357.53005586
      9313.49718021
      5923.51700747
      2461.80551447
      4882.27783457
      6583.47928689
      8514.62959131
      2326.89741067
      3769.83528108
      7834.09880515
      6746.87217228
      528.38672904
      5604.71535835
      6266.48751237
      3152.96970273
      1871.94536752
      3408.43692616
      3641.30960878
      4813.81926165
      5819.72004341
      1686.10369042
      2530.58329896
      4265.64555982
      5098.19052117
      4888.57691971
      1296.56932604
      453.86046919
      -495.02935685
      -150.01267264
      7896.96224189
      14382.24429074
      11565.22979424
      13591.90080423
      54.91700530
      4469.00331053
      -481.92543187
      6324.87441373
      7434.83039536
      7198.41430236
      174.87174539
      8792.30469261
      -6788.25256673
      11632.08571780
      6124.83715051
      -9706.06496387
      3478.99913591
      17308.75239524
      7049.84169594
      6583.84360675
      3327.33364202
      9235.79648195
      -1984.16286071
      6121.26930400
      1309.87153732
      4207.52167272
      9397.71980254
      2042.80850064
      3179.97748637
      3193.60034028
      8750.37774994
      6544.65504616
      2455.99795605
      8218.00488312
      6020.38960245
      6496.88768009
      2743.45759798
      4502.47093452
      6380.46989152
      8596.55677949
      7177.07713643
      6794.84639341
      4978.26214120
      4641.06488607
      6418.18902769
      2043.54972154
      6613.57362580
      3878.63619816
      3354.04798247
      6054.70546649
      7100.19235731
      2974.14038576
      2909.87365796
      2518.26012131
      2791.47082864
      4223.63918929
      3507.46783829
      3713.98184541
      2523.59636418
      2890.85769174
      2592.68022426
      1113.15981511
      101.51448701
      -1179.02588549
      1196.68421350
      1031.75940052
      18258.83006797
      10183.70007386
      4523.66346678
      7784.44434383
      -21382.90746511
      -442.78084106
      -5187.27890890
      14746.65128218
      16833.52951748
      16772.85909053
      13746.60381766
      -1101.65480985
      -1963.32693991
      4754.84960184
      3865.67611955
      -2542.22902010
      2516.52759119
      -1609.93370724
      6148.34977516
      889.07090387
      13727.19379527
      4031.63020789
      1690.76609384
      2424.46845096
      11873.54132566
      3931.53484610
      3997.37504294
      1853.44961727
      1730.93263419
      3311.60525488
      4801.50982631
      3761.27887521
      5475.52524594
      3329.96301492
      2511.75412672
      5695.89167906
      6572.49084070
      -474.98871493
      6378.54398679
      4565.35185080
      8205.69581987
      7911.65029071
      3567.33207862
      6280.99473768
      8944.66413622
      3217.95786388
      2967.50567914
      3930.21824837
      4904.11305812
      4161.00767592
      6051.01609051
      4159.66401836
      1215.98731137
      5442.85451592
      1458.30442588
      2167.62254673
      3640.69842038
      3558.34062964
      3503.75457444
      2257.02629829
      1684.57232359
      2649.04983409
      2208.91885338
      -1285.15936869
      2900.85241578
      31.73498810
      9415.32965505
      19838.11911240
      4891.59892371
      -781.73026877
      4002.67494978
      615.87257536
      34831.47792751
      6555.96371421
      -134.85170302
      3726.14567658
      3732.51912943
      6696.22889365
      2816.85918232
      4551.34113715
      3745.45670189
      2426.11573737
      8142.80287825
      3596.98874346
      427.36237730
      10062.25480583
      -2681.24309055
      6947.29199648
      5644.49878901
      4779.76760511
      5262.28170374
      6448.64818787
      6685.73253322
      5666.54705722
      -2827.14665623
      3399.25362817
      6598.32905434
      1812.09612329
      5762.93967462
      4875.89003933
      3774.83328528
      2500.42300798
      8860.92455586
      3455.35677246
      3105.24960023
      2136.30236600
      1948.20199519
      6020.09286519
      7415.09071578
      2091.31918647
      6102.94263671
      3852.28761904
      5223.85497803
      3209.04536678
      4131.18473484
      4686.51660097
      4170.72266492
      3479.37278490
      2343.90421590
      2628.71879863
      2403.96045819
      3132.57511613
      3753.70252315
      793.97931252
      1028.47472221
      2070.75311138
      3019.11126496
      169.03173723
      1774.83253115
      374.62584235
      2181.24748533
      1400.53306473
      11497.05755418
      5316.40644408
      16240.54327134
      11072.74375441
      -3267.47557186
      -17396.02375177
      2958.35418528
      9473.19318313
      5747.78895671
      8775.41743008
      13289.83160080
      8268.33932660
      5600.92899765
      5162.12175079
      4144.74599585
      -1196.44947724
      3869.05257759
      4369.77043429
      6326.62196500
      7595.57600318
      4538.38272226
      3688.92685281
      -6986.54284807
      315.54787253
      3567.58906314
      8113.47018777
      9666.64531430
      11152.26543480
      2559.18693281
      3820.24829132
      2606.97829058
      1091.22357030
      3129.87060356
      6088.31032778
      6138.27864534
      4401.03482568
      6739.42737567
      5032.22726584
      264.87934308
      2057.98385414
      1174.12748533
      9277.90465299
      3848.78620271
      7149.96099280
      3592.37368112
      4607.45506038
      3205.17867778
      3859.63523061
      2404.24763315
      6907.49768944
      4959.85380720
      4716.69682393
      3206.23545987
      1265.32706143
      2319.24217648
      4221.21356878
      3138.87962082
      1878.95025355
      3946.61297975
      2785.33086256
      1537.37551908
      2474.30870880
      5369.64228226
      -1086.53571563
      620.55699071
      -1488.05716284
      8586.25936790
      5452.13756211
      11422.18502537
      26660.54671761
      5322.03736449
      2802.29086370
      2926.08012419
      3523.67580292
      1751.81277823
      -1966.84206287
      10145.44909083
      -6081.16757176
      7210.98133702
      4211.00334890
      13541.69022222
      5998.65039429
      608.90460053
      -306.02359821
      -1435.41561449
      8718.86132171
      -374.36181568
      3462.20417672
      6387.18284232
      6816.38509183
      3445.92972076
      1626.83064535
      2644.17603261
      6822.89792771
      3296.60073020
      3971.44090337
      2311.52145266
      4615.34740500
      5370.14973329
      7424.68450548
      2607.81264518
      4624.85666970
      4457.79787241
      4867.57173584
      891.72004455
      4324.01442107
      -282.25958873
      2597.31287604
      1564.42664226
      9774.58251448
      5775.99854977
      2105.47227021
      5486.48031892
      4765.32395063
      -996.51514715
      3362.93844630
      3393.22454462
      2881.79041170
      5944.92311928
      3587.43977984
      3495.12521901
      2737.97659696
      1466.73054335
      3364.35201295
      931.24743295
      1220.87553214
      116.14687654
      3299.42612273
      179.21374515
      169.00685307
      -587.67596028
      1155.63008026
      19437.80953265
      1348.62401795
      7415.42247529
      2981.52007547
      4079.31136013
      4286.01309426
      3954.72086611
      -5939.20662825
      951.12946731
      1206.93746732
      3341.94617770
      4763.26357145
      -626.26958367
      -1670.31927359
      -1573.08397271
      2273.87102173
      4559.42932382
      2470.56706788
      -3015.72090676
      7775.01873014
      5341.30335590
      -26.47557007
      8070.55647863
      -1082.07112318
      3614.29904826
      2896.37834224
      2556.53383145
      5197.14441754
      -1280.59804040
      -6119.37165322
      -2376.07935056
      8236.91044575
      2343.38138417
      1084.90062400
      6002.98115150
      -4798.15380223
      1892.17566471
      2564.80153486
      5278.90087729
      -648.86588244
      -4083.99684335
      4478.43723419
      3437.45159139
      2817.17553583
      6194.30552703
      6306.34146679
      3746.11935005
      3178.37492729
      3502.66055328
      523.31587032
      2590.51486496
      1846.45382615
      580.80422782
      -408.22408843
      -58.25006764
      1617.50142492
      998.14254140
      990.84526422
      4958.88659069
      1848.85126735
      2598.45380494
      2131.74090952
      2808.34349043
      -1290.18362843
      -1144.89078435
      431.56486009
      5531.04514230
      -2297.68567968
      1927.15596403
      5622.19338340
      17360.38005802
      -2265.60541763
      2337.39347781
      5338.73332091
      4063.79718442
      4418.81244726
      12660.62244836
      8608.17477662
      13556.35141012
      -744.64670822
      3571.69319940
      7056.06930918
      -1937.36601705
      2968.39093444
      -812.27743786
      -679.96332154
      7167.54638952
      4694.12869346
      -1298.71449240
      12447.98483672
      2355.21946078
      7451.03923796
      -6663.75092104
      6642.22862609
      4267.52629952
      3864.82983061
      2563.30665574
      1892.48291972
      -2471.49386676
      4942.84355010
      3903.86592420
      3685.88321249
      -679.67954269
      2963.79245502
      5730.93221640
      3099.14425092
      -110.10069081
      271.15534325
      -2028.75241119
      2291.52788257
      4150.93552195
      5573.90009712
      602.14920415
      2683.12334077
      7111.43549847
      2687.49059861
      2321.35754616
      2536.47107447
      4136.15428544
      2598.84799200
      1915.38223273
      2776.30521583
      2196.84281145
      3890.25297105
      2833.16269582
      1124.53367590
      -802.53536024
      1631.47233702
      2617.56830324
      269.89909056
      912.12559049
      2372.37687902
      -8825.61842636
      5723.49200531
      3215.77011087
      10179.03561327
      4859.75527263
      9193.37997668
      3623.58426291
      219.46149733
      -15661.56772357
      -522.32813691
      7569.31605955
      6066.11850744
      2710.85746509
      3050.15776431
      382.38491969
      5885.46055036
      -1516.52078722
      319.36762985
      -11322.77599244
      15346.59192494
      -5414.30520891
      -2798.45004092
      7990.42843833
      -140.12680268
      2833.78800474
      1631.32366100
      5355.30184064
      5325.77913967
      3926.73810049
      3091.04570428
      3604.93922128
      3342.50630066
      1191.97112725
      55.53717412
      -338.20423801
      1955.16053579
      2982.34325983
      2712.88849926
      1396.44708218
      2071.89590534
      2454.08081711
      2021.97558150
      680.16517346
      -983.68991645
      3263.62918553
      2803.49097549
      4470.83625106
      1509.50320943
      3561.32784974
      4769.65307835
      1742.15776494
      1553.66652391
      480.13203114
      2409.32766336
      3941.70887058
      2292.29777320
      -2289.60557954
      8133.22702830
      2335.15688510
      1068.76052348
      -1420.35160716
      -922.08122431
      1824.43416008
      -2801.95339821
      1735.59884973
      1648.49665768
      -19965.59071168
      4801.02837140
      8245.14701148
      7996.74099056
      1272.28647056
      6841.01369326
      8449.84159942
      2752.35895092
      -2475.29849581
      -4929.30934343
      1268.30030200
      7334.91277748
      -170.85075124
      6223.19285933
      4263.92220504
      2440.79279798
      10653.54748319
      -4559.87882956
      1616.27116434
      2600.15340848
      6114.02649630
      1144.19407617
      1742.18952183
      -2250.99365770
      7795.54465685
      6581.20531415
      -609.08518060
      5884.59372961
      4344.69693132
      -27.86963073
      -528.66004673
      -6734.88700979
      1421.70773379
      932.03458416
      592.83369697
      -3744.45072207
      4752.04110300
      6113.91308725
      6393.37171172
      -252.13713691
      23.27393319
      2091.04634076
      4543.71099712
      1797.75733775
      -510.71290841
      373.25168861
      1835.35184211
      892.44066066
      1807.97521082
      1185.20944724
      2629.77171726
      1303.98243988
      1737.19697881
      2189.42133349
      4148.98866497
      5172.39762711
      2724.55690698
      -861.08035999
      2554.07757546
      -189.91405284
      -975.47402210
      2831.77992040
      -3429.70837302
      -581.83705311
      1102.15287013
      560.27436078
      -17854.16004077
      -4102.85569319
      5793.43183764
      4172.14760928
      1624.91329575
      4958.62992179
      6555.15965993
      2256.92458704
      12342.59892376
      2266.25318477
      487.78944650
      -597.23011907
      2752.81590863
      8794.48650167
      -4335.57260314
      -3619.88816094
      6170.39800827
      7461.73129468
      847.98691301
      2989.90825206
      5144.28774142
      1462.74887493
      8677.59833874
      768.82977683
      1059.58519559