<?xml version="1.0"?>
<VTKFile type= "UnstructuredGrid"  version= "0.1"  byte_order= "BigEndian">
<UnstructuredGrid>
<Piece NumberOfPoints="5123" NumberOfCells="5123">
<PointData Scalars="Pressure" Vectors="Velocity">
<DataArray type="Float32" Name="Pressures" format="ascii">
      -902.89149756
      6895.54402895
      7743.68258386
      -35561.77368429
      -25076.91863939
      10298.47364909
      -20482.92742986
      14441.48727387
      2411.27751142
      -37979.07088609
      4603.23200685
      -24929.46055353
      6987.93596003
      4148.23919411
      -24289.64383439
      319.38216517
      -28172.76905675
      1435.11433726
      504.44646432
      -19896.22698744
      999.38299287
      654.07959271
      543.21997687
      233.16586179
      177.41827120
      417.68401443
      456.59349487
      -1221.68163571
      192.55914956
      -1009.99696420
      1055.78056439
      6214.33546351
      4317.88352713
      -9185.73113773
      206.84179467
      -194.14346904
      304.38635308
      6926.42314606
      1685.60440022
      76.50717934
      163.20227615
      200.17589329
      20.98367837
      2590.44708583
      383.88931325
      -791.74509568
      1055.92020367
      415.89634849
      -716.02064151
      805.41680301
      321.57934874
      -1224.49418788
      -1198.95541090
      -1221.94948000
      106.72815660
      163.97116460
      558.72522017
      1249.95723513
      1888.21058271
      -23.92024676
      -23.72130035
      -788.62498128
      1129.82182901
      1204.30273165
      675.11776896
      606.45980126
      4223.41868105
      8470.45446363
      4687.86267626
      5981.26351967
      1782.50224069
      1560.96272760
      2223.02291611
      2003.35773301
      2293.65403843
      5062.64036710
      2028.08650207
      1057.05468410
      2017.19313188
      752.92142404
      1836.66939765
      -860.61697972
      5093.01257230
      3345.88575015
      1120.05961329
      -1726.32414017
      -162.62763364
      2796.76018320
      6295.53905430
      2650.79705060
      776.29407777
      1879.67379364
      3928.67310349
      3045.18324247
      1437.57346495
      1152.71087194
      -1882.39437718
      1020.09930621
      3419.38352237
      2543.24761542
      -211.10562804
      -2536.41465137
      -207.01290080
      1365.61780289
      -3843.50117382
      468.12930467
      454.57409557
      5019.12879363
      -111.88850274
      -338.22949116
      661.33460987
      374.33771656
      389.76029782
      6645.62042984
      -2868.53120446
      1161.30641439
      177.34356542
      241.07162508
      1066.96971340
      3255.07556128
      -221.70355583
      881.15006200
      -1367.77027683
      -3061.90922086
      -2938.29124402
      538.87277464
      -197.16030559
      -239.24143751
      1751.29970259
      -20.39703591
      783.54668606
      105.24803551
      7004.06492353
      6105.11654732
      5155.40033933
      3196.86461705
      2538.26360154
      3325.22903857
      2373.99760534
      8807.25443422
      4360.26431105
      2971.48533458
      2751.60727098
      3000.40295823
      -1488.94322646
      2287.26906511
      4188.63078620
      -56.94753367
      4497.35477027
      6556.93178365
      4642.60109975
      2471.45519229
      1828.70129888
      2596.15254353
      1161.17797596
      -1945.86390874
      927.16004330
      5363.65610518
      4272.68858614
      1176.43319798
      5660.40232025
      3429.92128029
      -23.35197624
      2332.96689690
      5281.62414168
      3170.10974903
      5536.08379855
      -685.27285556
      1395.72274445
      -249.53027502
      6564.95324583
      179.74842993
      -3163.16562423
      2596.58678352
      807.48253799
      -347.58648481
      -3314.66986572
      -2104.01729436
      3057.37037907
      6037.29172580
      6558.45519418
      808.80074446
      -9744.81480990
      1004.94563195
      135.05763436
      2641.77905128
      3173.30401666
      2577.59432601
      2247.05435958
      1390.07405306
      -544.89110511
      1090.11482507
      -456.66461665
      -822.57320296
      -1636.28817545
      -789.51445612
      -255.59835829
      118.89666810
      4044.48881616
      5805.48729927
      5267.12936634
      5200.40191300
      3671.25132125
      4012.34501239
      6679.01010040
      3190.72297689
      2587.84911495
      1607.53912945
      5158.67340596
      9524.24100350
      6207.07757036
      1529.88022568
      3816.08027009
      1864.04846697
      5237.44268836
      2062.91755131
      -4.74065384
      6869.15018639
      2974.86269292
      6257.80846409
      6377.46731939
      5145.51735808
      347.08477538
      5081.83119062
      1342.51507738
      -4646.89442114
      812.44458733
      5565.22282669
      3716.49521100
      2575.88914409
      2346.98324302
      1661.14878325
      7512.73858904
      29.45140352
      3253.92073382
      6607.48546752
      3654.75194603
      6462.61787555
      1862.92856242
      -1557.76868054
      -1179.09249424
      -3477.91403651
      6797.03199263
      2410.21934500
      1722.67926461
      -396.37161920
      -384.01450267
      700.13143238
      1688.22228020
      1561.60103039
      1342.71463294
      4041.27703095
      753.42615048
      2647.34143278
      1456.87152301
      827.65518713
      3016.76837781
      1878.28670622
      763.36292065
      1245.62325840
      3161.04585745
      -2154.58584064
      758.79570814
      594.02201587
      5806.90610980
      3249.70876209
      13068.18656881
      8599.81349655
      6529.94463951
      12669.40371364
      8379.00358580
      5815.75169792
      2322.50298015
      2377.74762114
      1153.91655941
      2346.69496123
      -571.33196242
      3995.26008827
      8443.03292517
      5728.40697018
      6233.98151956
      4243.29735281
      1588.01602122
      5257.23868276
      1792.62850713
      1419.30432701
      2922.69893112
      3805.93545682
      3412.59685785
      10798.16158872
      6663.38650052
      1538.36734200
      2081.04553351
      5352.64331883
      1149.95840089
      2551.23691993
      2968.12783884
      2609.04610577
      4168.35179014
      859.75602816
      1544.40930789
      2540.83330739
      2713.45277118
      7522.53918647
      -1433.37038714
      577.82750221
      -1782.78723872
      4196.28572355
      5049.53966061
      4189.72106917
      3163.52077010
      2106.67656781
      1148.97233399
      -663.36956300
      1268.66844862
      -99.92237469
      1061.13606715
      1688.83766338
      1483.43575714
      4668.69699771
      174.53789796
      1306.61207216
      -2776.88153016
      443.24130667
      296.37675856
      5887.11657016
      2731.14056732
      1068.30202162
      -543.84345158
      412.44527466
      -17305.06999468
      7358.47483514
      6337.52386812
      4232.21827097
      10430.13458146
      2574.01692594
      6626.36371337
      11703.33519356
      10774.48936075
      5407.41597608
      4419.17212571
      3663.14613220
      5236.64928090
      3545.18681236
      2084.89167258
      4753.81787692
      4552.41066358
      2360.78354243
      3932.31721232
      1863.26358529
      2125.40485955
      4135.36985331
      3260.67037693
      5943.49716001
      5382.75580096
      2754.18883594
      3034.45430535
      -583.56419355
      3797.20735517
      1933.89178945
      -966.78128350
      1792.40204313
      4785.75476216
      3049.23725329
      2186.07604828
      2262.12458230
      716.21392134
      6875.34320229
      7240.23683821
      -1476.81289148
      -373.94782494
      594.45048793
      -274.82683514
      4782.29433264
      4239.32500711
      -2249.74848726
      1729.07710364
      6621.40422500
      2413.98417821
      1927.57774533
      1128.57327036
      1862.57191903
      5612.12460366
      666.13307403
      -1204.07417370
      723.39566932
      4310.32807618
      2003.87871627
      1710.60890174
      1196.31194399
      -2313.26512905
      -1256.51886395
      3188.08286301
      -1568.15454670
      560.02305625
      605.30953898
      -28807.02041058
      8139.59234926
      6610.00548877
      2826.08532773
      6451.91422591
      11991.21843163
      4268.62308109
      4084.72277345
      5092.84691451
      3262.41547966
      7685.46679021
      6069.76282768
      5298.36303163
      7430.18700593
      5184.20448014
      3967.75512782
      5384.02223815
      3972.41449440
      4239.19271069
      6219.42792419
      6905.67734179
      13704.30826114
      3880.05649525
      6542.81308154
      2456.89946414
      3384.53612059
      8417.45012759
      3891.07755715
      991.66869896
      2392.79982770
      1331.39085325
      767.50136723
      -5913.06321433
      6332.85884604
      3233.32795650
      4642.58159884
      9359.34624418
      1956.79412583
      10034.40457459
      1936.79470443
      2225.57241240
      4340.40303076
      934.99380715
      -2522.76170438
      4205.28073440
      6637.55179045
      2824.32617233
      3664.36135586
      1845.50642462
      5047.33053111
      2920.15331425
      -698.35989029
      -1067.44758103
      2040.06165771
      4793.60759702
      389.49100696
      1141.67850132
      2511.26562618
      5664.69702937
      3220.75333331
      1454.88413711
      1565.18015007
      3484.30317036
      -1333.59688701
      -486.24120795
      1399.73148437
      9265.38134805
      5833.91982684
      4635.50662012
      1724.05364546
      2021.33902604
      1714.77889346
      4603.94823448
      1485.49018607
      5054.87686344
      3904.63988273
      4791.34787275
      5386.38873558
      2339.57625180
      5270.74976552
      -1727.16997272
      4552.18733905
      5819.62838921
      2523.79957477
      2965.37718361
      2106.05117272
      2574.57568236
      9570.36327680
      9645.58803766
      3774.39820791
      2003.36972226
      -4738.23274974
      -986.86716065
      4023.23339037
      9362.36339422
      4896.16160561
      5476.29069594
      -1095.38336404
      1877.06437400
      3512.47435914
      4760.66350975
      4128.81731611
      3217.52655570
      3655.31527454
      740.35634887
      2957.34001900
      4680.72322402
      911.46775098
      -1045.10956745
      2765.29986818
      1953.56961912
      162.76727795
      3136.96590466
      2895.32091797
      3522.59870456
      1288.24799191
      514.46427930
      2078.42796855
      1526.32075645
      1683.55333002
      499.77030243
      2726.49988295
      672.61785256
      2932.12687935
      3189.11441309
      2399.47803061
      -69.14683652
      2211.71542204
      2914.44912551
      778.22645936
      -1010.47411696
      642.66196544
      -18063.76538625
      3780.87991721
      2138.68443730
      7536.15697656
      15571.72202404
      5861.19468064
      5668.23977572
      4148.74046461
      7133.47983160
      11528.78839604
      9463.31281026
      3407.16981253
      1709.44215762
      5332.10296263
      4059.17154001
      4901.63167522
      2558.14539331
      525.00066766
      2346.39677924
      4051.53879316
      8186.20974527
      4356.36518889
      1387.34893121
      2861.07356782
      4550.86369153
      3217.16778620
      5482.18192449
      2361.45491188
      2617.20147132
      4169.28752604
      3338.03980150
      3533.02418230
      4521.76071264
      3157.39295800
      3653.02808917
      1172.31987545
      974.30060344
      3793.62093629
      4816.52531271
      576.00193971
      2291.47758569
      147.47960892
      3740.20828311
      4832.43258406
      6677.94654271
      -1356.97449076
      3634.99998276
      3385.72114696
      5362.55768642
      1121.89022273
      6807.11404379
      -1239.68029876
      -463.74413798
      1548.91030016
      3708.11391871
      -266.86576310
      1669.28920284
      2238.52971108
      2410.70612237
      366.48148317
      2218.14362197
      40.00129078
      3657.62524425
      -121.68927237
      306.18590515
      833.07931024
      -35532.71009678
      5869.12759868
      17183.55301922
      12532.89685646
      6973.31063478
      7048.99365253
      11366.38574536
      1316.80927899
      5539.64249494
      15823.87919778
      3254.56774512
      -865.85200826
      1894.72313257
      3966.37556885
      1615.46278995
      6456.92606514
      3784.55044304
      5269.07394529
      3382.54337842
      6389.11708180
      2846.02295525
      3338.71507218
      7582.62601487
      2317.87330666
      9250.66536743
      1587.68877336
      1961.15993954
      372.75663421
      -89.95832465
      3218.83122510
      3678.00536049
      6173.75809149
      3104.61119660
      2811.40768975
      2142.39418858
      2726.58074856
      2001.03292616
      111.43114508
      240.97434326
      1536.55260898
      1486.86930436
      610.09175682
      4361.86122624
      2557.71913567
      3624.42958744
      4534.81570042
      2158.96185476
      -822.69217815
      2688.27196310
      1732.04104791
      756.72287428
      2447.45196780
      4931.43326458
      1758.97717919
      1620.23280150
      1050.10254444
      2787.74893467
      -864.22620990
      -794.04814904
      1441.38454800
      110.96756502
      -40.85541861
      2606.82951547
      -2224.07100071
      665.80629407
      802.93772445
      -32327.05726218
      11012.48609222
      12728.41533646
      10665.71952994
      13419.41359150
      6319.17453904
      8787.55257985
      918.89765261
      4238.46713752
      11293.44753899
      4290.29265938
      3559.49956070
      -2156.48702254
      9401.17047255
      2781.42118112
      4551.51661232
      360.59576375
      4678.70144161
      2489.68953105
      2926.49513846
      -1371.71253054
      326.94580405
      -625.30292535
      2533.34086677
      6140.06385893
      7571.93934878
      3443.38105224
      803.07766636
      781.57967722
      6757.69145149
      957.55916491
      1504.83933740
      550.37096699
      5603.16091876
      1967.72836736
      -1185.35919844
      1605.90441179
      4748.42073841
      2514.71987220
      782.70781070
      576.89816107
      -844.26999635
      3060.32037222
      7281.74061425
      3302.31142326
      3274.89388252
      3887.24336025
      -1610.05854970
      3969.38692115
      1679.89846260
      3424.01491032
      1811.44059858
      2236.79111278
      2601.96008752
      771.84751237
      2225.38001285
      -1928.44888706
      4681.11380218
      3703.25987695
      -2309.98034293
      596.76818115
      371.58707606
      -184.02893449
      -477.18869355
      433.13311874
      1601.51743085
      6483.56182200
      7514.50619759
      9557.25596804
      10769.68937224
      895.85721388
      13954.64786156
      3560.78578054
      -5393.29294048
      6060.13450359
      1933.03323828
      5552.78842305
      6595.24903280
      7016.09346643
      8161.62731753
      138.48240346
      1043.04250998
      1148.97171390
      631.04495388
      6957.71702611
      5648.40972101
      3724.26746185
      3967.53537093
      1085.24443439
      -6456.64584396
      9492.47908442
      -676.11837757
      594.24285352
      1591.42189591
      9403.47709254
      -243.66608067
      -2017.58146623
      856.05911202
      8606.42772380
      3161.87773616
      -2133.37681258
      5001.65524118
      4195.15322341
      2334.52851360
      809.62421955
      2587.21120590
      3131.89174973
      1787.23849313
      4512.64533993
      3265.34677151
      1607.71927525
      2346.63470371
      979.41574343
      2053.96650950
      2377.62047086
      -875.29266782
      2547.73048920
      2988.43836532
      -1398.25821459
      127.52154086
      3814.42053390
      3732.30087825
      863.04301799
      -1828.08704739
      1221.23422996
      825.00850108
      1612.81820739
      5555.13581814
      -1247.41718270
      876.25759439
      -921.61696013
      -102.81267209
      6401.68493040
      5775.33574006
      2254.00962150
      6063.24910388
      15024.23471078
      7494.91089088
      3098.42867678
      4347.19189632
      5210.67852593
      1128.10977766
      6646.44678599
      1379.73910087
      3777.98110084
      2703.85465812
      2609.95120625
      2649.99029003
      7160.82664372
      -3656.81555504
      3554.39550380
      679.37605121
      6977.09124094
      301.53673148
      -390.80976403
      4214.99967233
      3771.13144176
      7654.43077671
      -732.77205960
      2680.49698132
      8705.33427015
      -4978.49416822
      3981.45918042
      3726.13359332
      1879.66105543
      1223.83983855
      2901.81327659
      4454.49613296
      561.66809087
      100.76742744
      4634.42586842
      1738.01232320
      5106.04472500
      647.77419555
      3291.65406594
      5898.06275806
      1587.64583759
      4164.10382842
      4766.83383566
      2491.64027404
      1648.11947980
      1282.74055861
      -386.11618133
      -496.68546569
      -1106.07173044
      453.21092758
      -2680.91950812
      3082.87036284
      1149.82250867
      3948.03863339
      2597.93558289
      362.89223062
      2399.97600294
      384.81709602
      -5426.05703095
      662.24319831
      -527.62272004
      290.32683612
      4730.00939611
      13235.49814323
      -10272.96249949
      8902.29794712
      2853.78121379
      2011.49130743
      1121.70742255
      3830.48280348
      261.12909909
      3627.83686359
      6481.46952703
      9691.94655809
      1486.40393524
      682.83901010
      3455.50073588
      925.01485494
      5300.31238998
      -1274.56783228
      1016.25053142
      2520.67216581
      940.76304663
      4559.98377154
      7421.33195965
      3553.90372482
      8101.67736488
      -753.06982117
      2171.72078195
      4686.83928623
      35.44969163
      45.80818043
      2145.24029024
      4378.97195178
      45.00701616
      -1891.15224471
      -2524.80330676
      4311.89418485
      3028.61429551
      168.99837254
      2036.16515187
      2327.54136205
      497.70361814
      1266.70816526
      2326.35570789
      1990.19476222
      2740.71418940
      1680.01725442
      2949.54806546
      252.72438155
      404.66009208
      1103.29904166
      -915.68071408
      1846.40529349
      909.61440917
      -39.85503580
      -1090.80968358
      3336.10352718
      2342.57348706
      1886.69404927
      1442.57958200
      -349.25099533
      2376.70606590
      283.69036141
      -1585.22490990
      -299.73316722
      205.57887521
      543.19976967
      18314.93141054
      10594.23888511
      4345.06806960
      5935.92900125
      2645.85200186
      3173.02732786
      3579.17613720
      10936.49561318
      6704.52308038
      3189.99127592
      1693.40310153
      2097.79039528
      3300.39687723
      439.83354384
      7291.00156002
      -1176.30054208
      1531.50747556
      1010.67431371
      2502.11618283
      -695.28016561
      1436.02638741
      4067.35857978
      2930.13581057
      4936.32101161
      4381.52243779
      3163.90693219
      3493.11943003
      -841.75949887
      3477.03871535
      2498.20729195
      2576.77296490
      1957.29283859
      778.67334016
      3187.63385668
      1381.88075249
      838.91049468
      1195.68338595
      3064.98849903
      -1050.70858206
      -291.92319593
      1888.65836150
      1102.00776974
      2445.50180390
      4711.66561778
      -1004.37854547
      2806.95047247
      699.25759817
      1457.58211547
      -246.69835788
      -129.40032824
      -70.65270232
      -394.40314784
      1036.89401254
      -206.72654917
      1234.99969400
      2455.94611725
      894.75222703
      1255.45021637
      628.48313186
      171.62341629
      1949.94192014
      -59.31237823
      -1429.05312473
      -158.34386297
      -764.75965067
      -5118.12138417
      3481.02887841
      10591.63772614
      3555.11093253
      3664.12858507
      3181.77992831
      2644.32846534
      3808.78418910
      1269.19929040
      1134.21682945
      1134.95999730
      2045.23158132
      1387.20078810
      3988.23376622
      12480.22018369
      5565.30959141
      -219.80074999
      1114.06214650
      167.73673485
      -4119.23232265
      4027.68601628
      51.44490209
      2317.62566498
      4134.42086342
      -4202.99323470
      5320.77244720
      2753.31118863
      -2042.62548251
      3573.16455145
      5418.17626190
      2060.11430355
      204.20991740
      819.22300411
      2557.95928292
      2910.87568220
      1374.86721384
      490.50783457
      -618.54625222
      96.37805452
      -594.39766459
      2904.52071393
      -95.23222935
      2183.01976388
      850.77401503
      25.45762457
      -902.09558165
      1317.62007462
      1823.25024326
      3817.62542735
      1269.88297124
      4776.88720943
      -305.97198559
      376.51064510
      42.87912391
      -952.94697377
      2687.65751775
      720.19031560
      1483.98039209
      -379.72409332
      -452.77656647
      514.94375502
      3314.26282554
      303.04149180
      52.48554753
      -237.75798679
      18.16986957
      1036.07898766
      6330.87699492
      6425.31482784
      3298.46674164
      18104.60034099
      7069.89657878
      1721.18400847
      3647.68345043
      1053.35886382
      165.82730869
      -56.02072649
      2139.46723571
      2692.96260470
      675.20672503
      9880.28138029
      1008.99567313
      9549.84254255
      -3387.23684984
      2541.98755523
      -1829.73392398
      387.64512514
      11094.22023841
      -45.43136001
      7461.41443578
      1505.49470378
      199.44816729
      3375.30668499
      1676.53705924
      5300.62370568
      1796.86590970
      1217.62435745
      -1084.01626594
      -1390.38097381
      1098.90608525
      2080.15505915
      1394.54411673
      -4429.32070306
      -4250.06691447
      -1567.32376807
      1404.64860706
      2514.02305867
      1962.01157322
      3251.82552399
      3299.93084184
      -200.20519893
      446.79788396
      3338.99223440
      1970.27472475
      3146.46056572
      2000.30667584
      1291.30322071
      877.74667782
      1185.09293469
      300.63103779
      -639.01141238
      663.43790637
      1183.37009826
      -164.14112763
      -427.46248595
      -724.85754159
      -1612.25121305
      2320.07453371
      -211.36931262
      950.88015410
      1484.36541230
      873.89214405
      129.53807784
      7617.98831299
      8253.82880179
      13646.34592052
      -10944.63250145
      4751.49235176
      -55.15334996
      -214.94952784
      4579.62783856
      9703.02672816
      2515.67283240
      525.56794439
      3507.78420500
      3244.73799807
      1742.83222323
      632.99936866
      5603.03805416
      -4375.43970614
      211.34199028
      -8958.27432916
      -4981.74585190
      2558.14670288
      3326.93877470
      1778.07641400
      1600.60450739
      2255.82610638
      4995.65267768
      2744.84418336
      2119.75360675
      641.13344737
      659.34457224
      1319.12666951
      -1472.87192575
      1122.35232550
      64.78509927
      2054.75256314
      3966.84654030
      320.08682370
      2576.18269794
      -550.19215125
      2007.03325194
      1425.50064905
      -890.59934714
      2986.12010632
      1394.00828461
      4575.06398914
      3119.32187823
      403.92726887
      2960.07757957
      1944.84674343
      1373.21504964
      944.19101202
      2296.97007922
      1982.48371977
      1510.31477146
      1909.36974092
      979.06773412
      1588.13583694
      1488.08412419
      342.74433527
      -1593.79227722
      3029.79158861
      -581.96697579
      -691.59893540
      -224.17390801
      283.87409427
      -273.80881424
      18463.23029511
      6570.41441652
      7390.37150644
      2736.59441905
      3687.37237835
      5552.19549907
      -1722.27075595
      198.57292502
      410.49775536
      431.27978180
      897.92840548
      2232.13703305
      1597.56182297
      1932.13018461
      2781.60976567
      3480.01719293
      1942.73106318
      -4897.32649899
      4806.23377859
      3937.65537974
      1963.24706545
      2576.95213313
      9029.22689518
      4297.42807773
      1381.17357154
      1219.15022328
      -1136.89765254
      -2343.71303928
      4438.25117594
      7832.00491797
      5423.31953523
      2852.24435903
      1254.39987167
      1460.02780462
      1467.59050269
      919.13425424
      -2158.72188251
      4197.50788728
      -1303.81364127
      -789.78225088
      1255.31179200
      603.14959948
      -74.76457223
      3172.83450585
      3518.96400098
      -813.96327005
      694.76311244
      1338.35535169
      1137.24428601
      736.05496179
      2754.32489025
      2387.07328360
      -234.32257058
      -1157.70843497
      -1030.19615710
      -232.17200016
      1705.37503966
      72.35421451
      1157.99436459
      375.03251147
      2575.59786390
      -1122.14577597
      -1094.80394141
      -925.77837691
      -143.50766736
      245.44186349
      19957.97362553
      2043.37139555
      8881.13563279
      2752.43352789
      7449.90402049
      1279.84573768
      3017.32091692
      1395.03843232
      4082.79122011
      8697.07692246
      -954.29441689
      5537.85818198
      784.34103640
      1671.60662937
      490.56424483
      10448.71538543
      1830.79354635
      2938.37798883
      1310.24327548
      1087.62470419
      2437.66162739
      766.57835757
      7325.89018074
      12517.28987142
      8079.42066909
      5475.44635859
      5593.27323763
      4521.72730183
      -1707.26894451
      9979.93636428
      1388.10275545
      6301.68134744
      1817.18350637
      12395.86430222
      -6589.40052435
      5040.13481998
      -8571.28517767
      2620.99951677
      3957.23733739
      7404.45712659
      -1841.70568854
      2853.52900422
      -1084.84322233
      355.04072736
      248.87985109
      311.68841795
      4273.90677791
      381.69767200
      -29.42478597
      772.75602595
      950.72215886
      3234.74130198
      2097.60895792
      1677.56745028
      836.53677389
      811.60546669
      401.41368414
      340.73840064
      232.52759143
      99.59413789
      13.68404387
      -140.25597405
      -393.08204964
      213.88128354
      313.02185340
      -436.87131474
      -8793.23265412
      3117.38556003
      1359.14568584
      2066.68288440
      -1239.96434066
      3468.37394171
      1146.44481807
      11300.89881005
      2885.46255488
      9636.10166300
      3542.32266895
      9875.69268039
      11019.85385363
      -4721.01947200
      -470.41956741
      6709.15501602
      19799.40300987
      -7552.93335610
      8877.48673280
      5909.78824509
      7195.20410638
      9561.74467222
      -2245.37070845
      10223.51963920
      -6237.04718858
      8821.54737462
      18887.26852050
      2931.39694619
      -1147.02545192
      6304.03798649
      16965.35175509
      6704.22953919
      11661.99669874
      5446.99359367
      1349.05122369
      5833.47133664
      -1081.83330786
      -3374.77507782
      3216.67989177
      -3185.48788692
      1035.52895276
      13373.65177559
      -325.63405163
      -4840.92915405
      -79.62282848
      -461.52393770
      -599.31080762
      -1570.09935467
      -369.29546310
      202.37365493
      746.00507279
      2322.38147898
      -0.52721736
      4441.09866278
      298.33486867
      -1426.71481007
      219.07835387
      -474.61106017
      662.11608223
      1108.14034070
      -524.77052745
      287.55327674
      -363.03956010
      -960.93684297
      -61.85799277
      -129.82479469
      -19965.59071168
      5461.70570975
      3985.59487271
      5602.91323081
      853.09048334
      4513.21049276
      4270.90402865
      -4919.09553283
      4455.92592694
      5225.25662020
      3448.89759610
      8479.29420515
      6878.03384385
      -1994.24665690
      22835.92285748
      3720.05066107
      10996.93920493
      9189.44762033
      3051.64912647
      10298.09572849
      11522.25095077
      13884.90845113
      4290.76159309
      -5550.56325183
      16821.82640282
      3904.77137344
      12632.27707087
      13602.46558740
      11430.28448892
      2292.01311003
      8954.03333235
      5017.63299397
      3809.07404157
      -5163.12275907
      12563.63286199
      4113.67528160
      -3887.92118590
      3268.22694541
      -921.42353274
      9380.97914093
      1149.49493035
      3286.79161439
      -558.18736267
      -1766.15135872
      -1564.51297207
      -3110.22413390
      2459.84369555
      414.46352515
      -360.69277528
      225.92605602
      -808.75696591
      -791.23531485
      -668.63830749
      1549.96073572
      -932.64097282
      2800.41144241
      712.19046805
      1367.89138264
      1124.66208593
      1967.72863025
      603.92012061
      139.68734552
      -567.02500726
      599.00371980
      534.44159461
      486.45658877
      -20679.69231914
      4718.65862574
      3800.19573628
      -2861.75770952
      -4164.42524328
      4281.17458444
      -612.74856884
      6862.36744115
      -3580.59386804
      4792.75050020
      6198.22015108
      2623.32032597
      8666.35032455
      4749.83538086
      16029.39387970
      3172.53327023
      5083.40739316
      45262.13569620
      7953.82574758
      2664.24344753
      -1477.71960297
      -178.91356610
      9867.71987809
      8163.78759716
      4177.29032561
      0.74102523
      11115.10637415
      1540.30347425
      9849.17325631
      4679.40523040
      -5584.05979634
      8858.33462310
      7898.56753912
      -2266.85663204
      3881.19831382
      -6014.00218453