<?xml version="1.0"?>
<VTKFile type= "UnstructuredGrid"  version= "0.1"  byte_order= "BigEndian">
<UnstructuredGrid>
<Piece NumberOfPoints="5123" NumberOfCells="5123">
<PointData Scalars="Pressure" Vectors="Velocity">
<DataArray type="Float32" Name="Pressures" format="ascii">
      185.96338888
      -27218.45873644
      -37454.25626546
      -35561.77368429
      -25076.91863939
      -12975.51022929
      -20482.92742986
      15677.39939755
      20865.24355928
      -37979.07088609
      2158.97003633
      -24929.46055353
      -17752.68365675
      8011.26826292
      -24289.64383439
      9605.61156546
      -28172.76905675
      22480.26587235
      9777.54966062
      -19896.22698744
      -12643.97358630
      11774.10877048
      -16447.19807101
      16850.10475904
      -6016.44311909
      9525.95623576
      9647.94099314
      -8346.19956490
      16024.85254356
      10731.60512848
      7776.60359735
      -9727.40743122
      14030.95256391
      11861.06818358
      5174.75275296
      5172.53201615
      2588.28561779
      8581.70564257
      1797.27688995
      2885.71966910
      -2753.17472551
      2931.57044633
      1373.39573692
      3509.56922928
      -2900.36678293
      3490.48706138
      2374.15017515
      778.11410448
      5004.16321369
      3570.00460648
      4664.62225872
      2139.74670713
      6162.44502045
      -5469.48711066
      4839.78079335
      -2609.73109031
      499.89008074
      1848.00620421
      365.36018048
      -585.98658163
      83.62234450
      638.59602590
      -1865.15837275
      2061.32417528
      466.65361483
      -587.07987095
      7469.94771731
      25548.87950602
      12434.48342318
      11570.59617996
      8513.24330361
      12672.72381436
      4432.54570610
      14086.57536380
      4936.13980452
      4688.87081322
      1289.75042048
      6793.71023071
      5313.72632903
      5601.38207903
      2789.50137826
      944.08374960
      4273.30418379
      6820.21041329
      7206.22843400
      13161.48103390
      1999.61265001
      -878.80389969
      7779.38622880
      4425.72645621
      6833.83463619
      6094.15207944
      3783.86114699
      6465.68718333
      6673.93945924
      8518.56684253
      7007.23043255
      1862.97288123
      2197.28100200
      2785.83028418
      6143.70790223
      4524.30140818
      3653.84131377
      -3666.13656420
      8744.21563441
      1823.40761889
      4900.79142701
      166.01499253
      6092.11141095
      8126.06577580
      5774.11537583
      1187.85320287
      1795.80651441
      3816.16890984
      1142.56793060
      1977.95575171
      63.04213597
      2879.47000903
      -1291.38567788
      4265.29573760
      1011.40776035
      1228.43142102
      7862.18451817
      -1434.55778410
      2832.52975818
      3216.22007836
      6129.94913025
      -1037.09303346
      -2908.50687234
      -698.38584971
      1100.04493962
      -144.74709424
      10035.09816971
      2609.72332494
      21439.30717876
      13022.86498978
      8832.66754196
      10923.02886145
      15327.80587209
      16096.49910660
      9817.30529148
      8688.58003290
      4802.67880831
      9131.48171239
      7586.03983853
      8616.88230129
      10731.86794305
      11030.04038307
      8432.78391174
      3430.67400937
      2564.29314516
      -657.78999288
      10653.67676478
      10279.56646196
      13179.51031651
      7413.26901125
      8707.24894304
      10350.46870557
      3421.14942703
      1992.76645139
      4378.21532925
      9423.04059695
      5616.39621818
      6149.90018635
      11819.06726053
      6329.04904632
      7740.98331265
      6282.69674212
      509.34649699
      2727.81290192
      7393.45079426
      9596.98864731
      8276.17618350
      4047.46030084
      -4632.12734631
      9984.67946703
      5204.25974355
      2844.83343661
      -1635.69393711
      9797.90784894
      4243.12403154
      2196.38492640
      249.33511448
      5350.81367744
      6612.13372301
      4158.57363229
      165.48034738
      -397.31371727
      2608.91962163
      3220.12063036
      4229.12473900
      1965.63548264
      3258.51084574
      3016.23373879
      1630.30561056
      -1748.88044354
      -215.71818935
      -63.78240309
      1757.61066762
      -8313.93189776
      10812.38577273
      18507.92041318
      18532.95396187
      8469.61201251
      9781.31728329
      11289.31515906
      15672.50957525
      2061.10436063
      15555.00991246
      29007.67308808
      12422.78896878
      9071.94039880
      12063.05434841
      2241.74797733
      5894.84942014
      12406.05472179
      8361.47673665
      10063.72134383
      5468.93299238
      8163.62137351
      15074.73456063
      16980.13100117
      8225.26946961
      14209.84171108
      5076.49416459
      2932.94107690
      10874.47199847
      9347.90228882
      8398.62802775
      1018.79882382
      5164.50585818
      8065.15108139
      7784.71864961
      7043.09806580
      4557.50669719
      2691.86164526
      5282.98811060
      9874.59708596
      2316.81134614
      3104.55168383
      4744.81914432
      9785.79745203
      6678.69655648
      7037.80594717
      1392.82224032
      5330.43530685
      5739.60147654
      5536.78029964
      6426.54446415
      6422.05017554
      3373.50687441
      4127.72592081
      3332.74445555
      820.26815733
      3444.00958473
      2805.25417464
      2174.03301424
      4747.57342589
      4350.10951153
      293.58779150
      1904.98553110
      1453.98534626
      3154.41060430
      722.44668477
      12866.14056488
      2812.52712721
      31282.56167918
      17552.18395052
      5896.58169402
      16588.18939126
      20450.34077340
      21746.12300343
      7988.43691390
      18766.56198657
      4476.74458262
      8061.06361640
      13144.32474879
      16729.60196920
      12221.11873317
      19756.66948996
      11346.37489283
      4149.86058789
      6360.43385036
      2186.55438126
      15770.15975576
      8397.82714770
      14245.76349630
      2858.77520430
      14120.12350607
      23959.21377249
      11362.31191901
      4361.90613406
      3809.70821572
      8962.01526313
      7761.23713822
      15692.31820533
      10032.64697190
      5667.99641116
      2847.58567569
      6604.96082651
      16127.48413940
      6296.68858752
      6078.39297951
      2139.56327642
      6708.52304371
      10704.42936004
      11582.77707673
      10957.74753506
      8372.85604650
      5015.62290187
      2697.18011235
      1415.66412749
      5820.24833070
      5833.54041763
      6663.94764690
      5564.04421046
      4263.38735087
      1934.58118535
      4295.46034601
      7890.73299483
      2438.29245286
      3054.37503635
      5569.40749544
      3674.44029846
      3220.71665845
      4174.58313232
      4097.96532213
      3223.10287108
      -85.87670642
      649.32224403
      -17305.06999468
      10186.85715378
      6024.36819323
      333.05143740
      14492.95401105
      -2611.11144582
      13302.32979971
      26739.80260356
      13576.78359930
      19985.59210751
      15266.37796738
      -16430.75945608
      6358.70517454
      11540.16867548
      14927.37740230
      5169.68363305
      11022.56253620
      26567.04372029
      18498.80748621
      3407.82106095
      2846.96968922
      13106.44022770
      10256.07511467
      7947.54327695
      6115.65111018
      2129.61159176
      983.87090321
      12854.62273832
      8430.01141095
      9125.38203933
      9735.39768518
      5973.15082938
      6256.92427241
      8066.47645847
      8688.38578169
      13072.33789052
      3392.07899208
      3842.71790602
      12064.44493426
      7596.96052127
      7604.18810913
      2910.32063794
      3891.49421469
      7199.76044924
      6980.46308135
      8754.25223742
      3714.24102814
      5274.21708468
      6453.27728769
      679.31569963
      1951.59621446
      8286.37532155
      4973.66936625
      6288.78878416
      1197.62312411
      4381.53539179
      4042.08849302
      4136.87512193
      5332.37619706
      2398.54830923
      431.03226981
      1762.44722660
      1677.31027883
      4378.60598153
      -822.39550988
      1135.87846705
      -28807.02041058
      8144.85948085
      15361.75178990
      6178.92558215
      6718.16595545
      28762.44722891
      8732.90945137
      17470.59405361
      22722.34888055
      17542.66794427
      4714.85048646
      9743.45376374
      17851.20791107
      -3904.08407115
      18089.39932032
      15222.58623122
      19031.79075166
      21687.03022061
      9647.12192130
      1325.06544868
      -1675.57710240
      16721.21224961
      18160.67129826
      10548.47467254
      8258.39591641
      17053.85129791
      4021.33101801
      1600.33455708
      9961.90052704
      7670.10103211
      3308.10204727
      5178.66019260
      9391.46397346
      7609.87221786
      11328.62137178
      12596.75073187
      13082.82311564
      9262.47768691
      6065.31915682
      8177.95801441
      8541.35650217
      9529.87770842
      7563.08257631
      2753.42619458
      1431.49574882
      8155.11784775
      1947.81405433
      3115.11428695
      9185.89231364
      4414.00219556
      5962.01090824
      5309.36431526
      6030.03470807
      8817.07116916
      6655.88890612
      2722.40289816
      5455.61405504
      6639.54817364
      4708.58857110
      2808.04621150
      -791.77845148
      2506.18934372
      -928.72242928
      713.43061894
      -5.32074274
      782.58429307
      18201.74701768
      16009.63645689
      18765.30785433
      -7021.08941658
      -31574.96944512
      -25888.13512561
      25307.55055746
      11590.25513387
      21165.72904559
      24050.67922807
      8250.66262053
      16370.43806376
      5383.15526246
      11428.74244817
      11590.77876556
      9565.35214932
      13546.48421224
      9185.10569436
      7531.74953566
      21725.54054660
      14118.05779600
      4737.75060933
      11511.22507456
      14672.43053069
      8918.25474150
      10116.84565639
      11787.68746603
      9354.46120135
      7018.50424510
      4574.89807016
      1957.71380839
      8086.76685319
      8268.45085238
      7329.25955125
      7807.43681359
      4682.55935287
      7005.03686711
      12245.87533195
      6125.32755584
      5526.21270540
      2225.70742511
      11251.21159317
      13065.78252086
      5270.52742367
      4580.28965657
      8275.87428512
      7562.78426646
      6512.46186873
      5163.64059612
      6103.86625312
      6659.58332317
      8253.86816106
      4251.93513985
      6938.28747926
      5157.55536475
      2024.70234275
      1188.50971308
      3900.32613267
      3363.19837896
      1145.13945892
      579.82793812
      2742.81499768
      2624.59343455
      2966.99114781
      1016.41401839
      1145.77807274
      -18063.76538625
      16345.90517179
      4205.52993424
      8374.53027414
      21277.04102750
      10883.68710023
      9700.74214829
      16969.15775809
      19816.66233670
      11736.35387939
      15367.67195954
      13740.86440136
      10301.22358009
      14585.02471934
      13647.30493858
      11382.29886764
      18524.33283251
      18196.82558690
      12163.75510420
      21327.86611937
      9843.15262523
      9470.11028165
      3374.56271064
      2602.03512487
      8883.55318890
      5068.91994726
      11771.41464746
      6810.86183126
      11457.74123616
      6688.31751259
      12284.39590087
      7967.74040624
      8096.57365959
      9794.58221021
      5685.10934089
      9143.40916096
      4310.72558087
      6082.83986049
      11194.07394368
      4423.62381340
      6380.19628251
      5348.63760619
      10560.04239897
      10884.04780462
      4988.99869593
      3662.04420822
      7176.65249084
      9556.08158442
      8126.84199624
      7433.25691553
      6696.06369503
      10039.75558967
      5963.17301572
      3158.08091052
      3274.97937108
      5569.29848843
      3967.52170409
      4478.71430884
      2996.02599352
      4352.08637510
      1282.50629429
      2530.78146770
      1928.91996387
      -1183.91748886
      -755.90424114
      263.96189615
      -35532.71009678
      4132.05440011
      17243.28560908
      24908.63554778
      7998.34962753
      10921.13286481
      10686.99434713
      38761.16044537
      5796.49776554
      20385.61269405
      6272.65684457
      16613.42072382
      9862.21449273
      5811.42599338
      10371.71979331
      19013.47487516
      17635.96852655
      18025.23154864
      20890.82659978
      4893.98887876
      11805.62651014
      13999.99067219
      5974.99143233
      11887.59480737
      16350.34543026
      5725.96797810
      14227.31329710
      9910.22709709
      7766.20700957
      6576.25830134
      8350.46102470
      7777.10709239
      10480.04187180
      5761.49541261
      7393.44348634
      9167.73120855
      7028.07035589
      6482.04633732
      8323.57102546
      12434.87052978
      6659.88755891
      7711.47061267
      7207.24689921
      11168.36813113
      9559.17163647
      5208.87065943
      4229.77692851
      10924.10495828
      6583.07358775
      5632.04897083
      6483.47084215
      7886.64724763
      7549.80999878
      3423.05808668
      5304.91280699
      7572.89072181
      3925.62897157
      1577.12331595
      8968.32990299
      4707.84551981
      -538.71905886
      3707.13182518
      1733.34959206
      2971.35109669
      -16.76924797
      -471.43146945
      -32327.05726218
      30006.49217088
      7616.69371535
      11717.66297142
      18688.16339300
      10510.13575655
      17139.09210828
      21801.41268325
      15678.04633340
      14261.48323594
      12337.74573530
      9647.53613752
      5271.33834214
      -3130.60722601
      12769.51174595
      21742.10060282
      12486.23302170
      14495.57520198
      6829.81059656
      13804.02064706
      15743.75878510
      9154.41412387
      9010.63435689
      8665.10894931
      7125.39594987
      12170.83121746
      19775.32642468
      6960.21817362
      9782.52559981
      10839.24458742
      10261.41977125
      2632.62765037
      11398.64836352
      8525.25618154
      8782.05722068
      9190.09541488
      7788.39005049
      9364.88308147
      8747.46377627
      9180.97131905
      10912.50695887
      2749.71871033
      5399.73444079
      11820.31173503
      12439.03892034
      8005.37759362
      7163.21453137
      9494.65960558
      10474.47539713
      2823.91964732
      1892.77382866
      5323.84997696
      7804.79911114
      6641.74296266
      3271.83023680
      11243.84185533
      8967.38310175
      1074.24787482
      4119.70073534
      4038.26228556
      -2381.79836155
      5415.42461001
      -1014.44350944
      4569.24594053
      156.64182379
      -46.99689569
      21211.71995638
      15176.97826825
      10089.91892899
      10572.37097470
      14190.13427323
      18673.29939537
      20091.18060509
      22281.78072809
      19528.82895710
      10528.95359205
      18725.77766405
      10310.61409698
      8611.87719546
      12179.15877801
      9365.01294573
      10010.38669360
      10169.96835429
      13722.17073360
      23601.50651477
      9124.04104232
      15469.90222301
      9467.73289633
      6290.31964733
      4154.07877130
      13152.78448744
      12577.67468221
      9729.10373266
      9723.97753258
      9849.64987241
      5054.55483406
      9586.85507445
      8898.47520176
      11224.59727080
      7108.41107964
      6905.33634611
      8109.62808647
      10632.79014736
      9987.80697358
      5267.97377835
      11978.63501083
      9431.39772710
      5268.56401458
      6862.99456250
      9674.36284618
      7938.91658460
      6063.37213328
      4541.94525415
      10173.82505396
      8891.89670241
      6751.14636430
      5672.12245309
      4938.27706098
      6358.55926038
      4932.04596278
      2524.34171308
      6180.35973356
      4643.57164965
      2221.92488603
      6622.45618601
      4775.90505194
      -430.13826322
      2169.70531610
      -771.69811098
      2574.72924830
      -545.79428199
      2199.10268142
      14463.09162291
      29074.76230076
      11395.17763381
      16229.17473728
      7990.16570747
      3156.90772661
      10883.45767988
      13195.57880383
      11330.62799231
      14724.90904268
      11636.81248305
      7402.22191658
      8395.36289177
      8766.31703479
      8393.97870693
      5877.87576755
      9050.46112095
      9555.22124298
      9767.62754263
      11185.54229188
      4980.70406977
      14834.31764722
      11394.63974098
      12882.87663406
      9685.98304374
      5761.08706447
      9578.02337207
      14824.11960756
      7465.97057906
      6804.02805072
      7657.27739114
      10205.70560840
      11238.31564656
      8244.71376918
      5792.43040612
      4123.15668641
      5288.66219366
      3060.30708036
      5720.68857099
      13666.61593853
      13085.59605963
      7511.43039968
      5232.22854659
      10649.27836268
      10692.66800005
      9981.77226342
      7671.73462585
      6699.71145885
      5783.26476578
      10065.51543485
      3098.40898668
      5775.05904844
      6423.79114407
      5969.94995624
      1661.01931371
      1272.83652808
      3100.81059948
      1460.17999065
      2838.46241321
      1797.25744487
      2985.25654110
      2428.68938114
      307.28252075
      4137.82052437
      -1166.69038365
      -321.38762726
      -14464.84083760
      19402.77552218
      14963.59406631
      21558.31557817
      17946.04170697
      12270.58984183
      7824.68121136
      18563.83088910
      12724.90379785
      9140.07831873
      9445.91172959
      9140.45985404
      3286.57506599
      7151.31647045
      12216.54278116
      7337.12327629
      14101.88088021
      3080.86809884
      629.60112150
      8237.48392458
      11532.61462529
      15336.58622424
      9252.29947130
      7807.43062863
      9880.07695463
      8271.95955107
      6744.33684947
      15690.08695540
      7924.35147789
      11068.15597990
      13413.56313836
      11197.95715878
      4669.32447344
      5272.84463798
      10264.90055634
      14513.89776288
      10154.71042776
      10505.43395045
      6269.43873034
      -1382.98433476
      8109.25823892
      7077.63645106
      7808.12551408
      4777.84812959
      10342.99991970
      18415.68379390
      2149.64635808
      -532.29928551
      8187.78601766
      7102.75300197
      3386.88702589
      2305.44312892
      3858.66539678
      6026.09520385
      782.92499313
      3886.72418225
      5305.00797310
      4489.34748719
      1871.09231592
      2698.01675867
      2462.63267856
      2407.02850179
      -225.59297742
      122.01918374
      1927.17612115
      -1308.78941590
      22285.82104308
      22957.73223742
      9045.26588023
      7363.84218446
      19349.88675134
      10833.10337039
      12271.43463709
      26217.68067138
      10688.52657186
      11870.78288189
      9627.97943149
      11405.71995144
      10768.30012020
      6851.88775664
      13194.06875213
      19011.55271230
      9550.43869908
      7827.33108244
      8085.85012376
      16073.06946718
      13848.73252970
      14514.23407199
      11106.56187761
      14697.54583610
      7786.81930729
      5762.89055020
      17021.14139724
      9571.94955599
      13317.29476423
      13763.38797981
      10106.53646352
      3729.05148297
      5868.83743502
      5774.20038128
      14193.25408488
      10428.00862480
      8743.95545464
      5994.05057637
      9913.89117990
      10451.48430438
      9381.87408740
      9257.83807821
      10267.82297148
      8375.11649235
      7370.76183351
      9065.99961600
      9747.39739432
      9344.46717717
      4104.99291757
      5234.43319934
      8609.52516193
      2776.38482355
      3236.23500299
      8889.71310021
      5242.86582209
      -408.42229904
      3540.64132747
      2034.82752340
      146.21944585
      4166.52341482
      701.44986021
      2490.10306923
      1358.19783370
      1508.82120265
      -846.62212933
      190.68857191
      -16390.41034223
      22227.67115799
      3939.50262490
      10556.88264424
      8642.94460302
      7757.86968726
      33359.04828777
      5779.80445947
      16293.45858026
      3909.37948924
      13513.69332235
      14495.46902462
      16006.74792192
      10555.94916739
      6383.26617336
      9025.60658213
      13394.17799354
      7995.34476859
      11334.74805303
      16661.24899300
      15276.34244987
      8604.33760848
      8654.90239999
      2050.41635847
      16843.37092107
      1850.52562310
      2138.76542404
      14009.94928426
      19699.99829625
      8089.49660813
      13593.46401714
      10334.36072806
      7382.44043503
      8194.19774067
      11769.37462708
      12269.76076799
      4934.05327067
      7090.62343179
      2319.21994938
      5497.23633100
      8661.86824238
      9905.63102584
      9138.07492115
      4964.20658694
      3251.83554074
      8716.62554652
      11151.10909256
      4488.72791544
      2058.05321252
      7327.79415021
      6675.63468281
      7067.08809257
      1935.59220105
      3387.96854032
      5608.72968040
      2482.31171953
      2546.56540789
      3432.89741829
      1068.06060392
      1735.77939750
      509.94250605
      1095.88024039
      2926.77677516
      853.21033201
      -688.61872863
      66.08248275
      7849.04185277
      10159.09357290
      13394.10461116
      11075.78013641
      3850.34940596
      13200.55285359
      17522.58979127
      20775.92187615
      22415.31445988
      19638.34786540
      13666.80203398
      14069.33203268
      19265.53485725
      16724.35352531
      478.96127607
      15523.73069546
      6065.52653731
      17510.79004646
      13480.73881362
      14499.94179414
      17055.56899127
      19519.32084373
      14550.49753333
      6698.07142478
      11933.02849593
      8707.85971733
      13067.79283822
      9975.11033460
      12607.07554816
      23529.16070221
      3667.72059241
      6723.73869306
      12912.58885451
      10399.54492641
      11943.64617817
      10822.10071236
      13439.23544097
      6369.63997986
      7350.27804704
      6809.88312168
      2367.07390167
      6197.74629791
      13205.40793366
      8443.94237261
      4257.19168629
      5950.53237248
      5089.06124445
      8707.57625735
      4151.00342669
      3840.30725230
      10499.62892382
      5122.68677346
      3449.23158727
      4705.41097739
      7317.23971048
      2364.79770662
      1717.84839153
      4196.07545581
      1189.13752216
      1126.55257864
      2105.88739522
      1101.80468737
      1147.13487196
      2673.15754134
      224.77600846
      267.45202617
      20302.12309704
      11724.37428756
      11694.70840745
      25757.90247255
      19098.18942424
      -12343.78211822
      26464.16446654
      15882.38426350
      13391.97859758
      18073.55390133
      20356.38730103
      -4465.01520331
      11145.67379128
      16585.96140414
      5537.18635438
      10904.17969608
      7652.53462122
      14464.87897123
      -4236.92805760
      6682.16209662
      12041.39509989
      11456.50727408
      3282.99107983
      9534.41902330
      9978.41215552
      15952.00876512
      17881.10515779
      9404.68032574
      8089.98615560
      15682.20172058
      10842.82682581
      6067.28058804
      5332.75010466
      5951.67470051
      14223.19420938
      13034.75622071
      9215.27564669
      4769.02489388
      13358.88761745
      10498.50290980
      7806.90616379
      7025.42203304
      5849.84963611
      8442.71052806
      3143.40941059
      2140.71568391
      5992.48370654
      9271.55279926
      5709.04209273
      3444.97268416
      2678.55451423
      4522.47204437
      5844.20314411
      3560.09648336
      3026.39326270
      5207.39078537
      807.26571042
      1554.86255886
      4894.41640207
      2698.74446829
      1257.46213718
      4591.27610500
      1197.98405322
      -332.87008782
      -1983.37118536
      -605.17535249
      -10159.03180650
      8253.87470555
      30949.48249065
      8108.12179476
      25151.87209850
      -19114.82533498
      42150.96137491
      -2633.67547243
      -1591.91892423
      4147.38966987
      16574.45523514
      -3758.83196184
      4839.21935795
      3361.43241261
      16017.40811652
      12611.03010218
      10757.92849675
      8458.80694261
      1119.62373009
      17697.58275292
      6483.50232687
      5837.90833357
      3820.74986848
      13663.93173485
      10725.49309791
      13869.81359871
      10577.17303909
      15179.54322644
      1375.69954654
      10604.75553822
      15181.03392874
      9314.64584862
      7320.42869059
      15961.99114776
      5101.24176820
      4596.58193544
      1976.95758078
      14590.79359563
      13212.20079584
      5320.82289537
      10721.04359164
      8165.39876171
      2520.19165181
      11174.35922677
      7031.59715733
      4136.04326327
      4811.28796850
      5990.91649500
      11300.75898691
      1008.51101829
      3644.48523966
      7195.83914480
      6251.42195415
      757.79392586
      6372.77794549
      7272.31741181
      2404.20580287
      -910.31688104
      2286.76462630
      1989.12878385
      1458.07521147
      3753.99256942
      -1199.01280948
      270.72202765
      -1499.87885970
      112.13673581
      27212.72874405
      785.30666401
      -4156.64218782
      19819.70284489
      11493.36150682
      21629.39337897
      16378.25657478
      13831.88168224
      8585.45914399
      3868.19915577
      10575.18935911
      7126.82308903
      6085.72052050
      4941.16530885
      11316.43685265
      11392.97549754
      7696.75581498
      9026.43523997
      14862.72017803
      8927.59785104
      8677.36590371
      5628.93480570
      6027.89446767
      3432.90378015
      13383.77176205
      7604.43622491
      7452.53464517
      10141.38004856
      3873.61541770
      7351.57063248
      8826.34395013
      14945.57571070
      8955.59712557
      4755.59410245
      13436.68695293
      11835.94098102
      5331.00275413
      8214.79465409
      8103.79641400
      7453.23990629
      10729.88588841
      9232.26053178
      4603.85818857
      5680.25721960
      9444.92720088
      3626.95227721
      5441.41233222
      4313.66404973
      8814.48599615
      9431.08527701
      4243.96838112
      2674.97162714
      5211.10407042
      7957.48285302
      -7.40277841
      3978.25770393
      6741.57948430
      1028.11455313
      2568.81957646
      7581.48205877
      731.02120472
      1256.09732807
      701.18880571
      1484.69880383
      -1018.78536335
      -2634.48971677
      21296.57029529
      25785.79196454
      11860.75045617
      9135.67762964
      15233.00701891
      -488.27078231
      5246.65360909
      1024.68347958
      5142.13730018
      7606.12428981
      15910.48644151
      71.17802336
      1050.25543254
      2697.37392234
      6249.41361823
      14091.94557024
      1033.31897365
      9472.26581871
      9690.92424966
      3037.52119595
      7990.67793643
      -129.24683513
      8741.86910115
      15523.42767378
      7693.57890662
      10438.26419205
      5435.02196668
      9238.89165310
      13412.56777968
      4603.37579962
      6842.20780288
      3338.74574310
      7523.87254161
      6001.44911840
      9965.05599061
      6204.76622641
      8834.14521176
      894.41086361
      9981.05958662
      7031.90105461
      8410.70135823
      12579.88085084
      556.68559213
      602.98951922
      4760.70369628
      5614.23587895
      3181.50219586
      3661.90995819
      8006.22570833
      11781.35734569
      3432.88562448
      4491.03560905
      5820.76713586
      6278.24310478
      1253.41477717
      2628.28172128
      4928.38219171
      2424.06874618
      -40.57350404
      223.41647869
      1123.08107406
      2286.48876047
      2618.02264618
      2782.09478371
      -6.48740772
      -1420.49289569
      -19965.59071168
      2080.17266138
      8058.09044765
      -2262.49576904
      7489.78049772
      6046.64092277
      7224.53867425
      7257.47465830
      9974.00690554
      10354.21092441
      -7805.13531636
      556.48549023
      21186.01730044
      8142.16221676
      8006.50727522
      13349.02540338
      13226.81005182
      9114.22164199
      5017.15089656
      -2307.42885292
      8621.34309604
      6797.01262186
      5342.08915363
      15330.18847644
      9914.58659905
      6575.89656199
      9019.62793391
      -1252.20193252
      14673.61243046
      8853.80338924
      9400.04330338
      1710.29084807
      4420.14626374
      5283.05078565
      8711.99128367
      9971.79457332
      7198.53390459
      10763.86917272
      2716.28886511
      7062.64576824
      3870.57995008
      4751.37207641
      7369.55885625
      889.60561289
      6101.92740421
      3773.98067938
      11773.20281172
      4123.49839639
      3107.89968356
      2590.20606439
      7586.61215897
      5390.28564390
      5384.07231892
      7078.47390936
      5255.61698265
      -151.57905056
      2235.39146748
      5320.86525644
      14.14446858
      2312.58998444
      3595.14951073
      3797.40144852
      989.12500989
      1536.01034697
      -2015.24738706
      1210.70040515
      -22050.37326239
      13052.61706738
      9031.80501052
      13207.10636551
      5170.05782434
      7984.91901836
      8682.30862609
      3048.12117543
      -15226.92283879
      -3185.88058297
      9952.45600314