<?xml version="1.0"?>
<VTKFile type= "UnstructuredGrid"  version= "0.1"  byte_order= "BigEndian">
<UnstructuredGrid>
<Piece NumberOfPoints="5123" NumberOfCells="5123">
<PointData Scalars="Pressure" Vectors="Velocity">
<DataArray type="Float32" Name="Pressures" format="ascii">
      107061.56665158
      -120917.27418704
      -73234.89486122
      18939.56220550
      2185.00155443
      21288.83809956
      9369.20235489
      -10449.23304758
      29050.56354109
      22053.19962432
      6894.93717049
      20361.46000074
      15077.49863335
      15231.85565739
      16417.56724756
      3206.47229611
      21933.74349981
      16265.63496481
      4900.34878843
      17315.28314499
      16587.82511612
      12037.75456849
      13129.45748825
      4564.06304488
      9789.40381328
      10053.32062657
      1964.69903430
      7638.08488003
      6731.86734786
      6040.40781596
      5804.65893862
      246.93109300
      3246.28094503
      3624.76958123
      115.55494320
      2252.86549521
      1970.63515952
      -374.16741485
      355.73784188
      -331.18111190
      264.01910965
      -142.65998971
      385.09606623
      309.24917577
      -1161.77682904
      -541.09322112
      -1358.62212423
      -460.90397893
      -1074.48081037
      -1689.67608194
      -1175.97160009
      -2363.91893726
      -818.24694950
      -583.13772531
      -2231.37441332
      -894.89552222
      -22.72533464
      -1179.51091541
      178.86641209
      -1500.80045443
      -272.94171012
      -626.25079328
      -1030.49254427
      -278.11400667
      -1939.94805169
      -338.37331261
      28692.46635881
      137169.88138338
      111837.84858359
      90466.51268349
      36619.65128228
      35240.55749319
      20881.50838989
      6468.94617962
      -1779.72857523
      -555.46260548
      2641.01746153
      -429.78163587
      7753.11431598
      8546.42060365
      3090.52809128
      7369.17985115
      4037.85505326
      2512.20989707
      2750.30028252
      4220.17104187
      3635.52870030
      2803.28391781
      2470.32876096
      915.97508591
      4137.91814387
      2438.27403311
      1199.30521623
      2506.83672605
      2427.89937221
      1677.69781705
      643.62118728
      584.42488857
      1007.01418579
      1843.11396069
      -60.32149233
      2972.83372198
      1645.27488275
      -147.47510307
      124.01802086
      375.24148474
      -320.85678524
      1144.12983434
      963.64692587
      -228.91108995
      958.42222282
      375.83528714
      1196.30851943
      -70.44613912
      1832.79860664
      1051.87385960
      1055.11535061
      917.16590034
      761.62488491
      658.37111123
      1023.40511357
      1419.85360483
      616.10541853
      993.71331897
      818.36391447
      1414.87206627
      665.16340668
      1458.44107868
      660.91906573
      895.80157460
      492.35497830
      50.34812321
      56609.26649201
      143544.46243363
      -71047.55925201
      39844.98920996
      -21668.06892867
      51181.93231655
      20427.49952516
      23656.46864574
      -9024.70286984
      -676.07645098
      -2492.64066599
      1289.42997633
      6577.06382330
      7931.70391036
      5340.46726407
      4918.33612995
      4614.41672125
      5004.02235968
      3669.91207896
      2148.89365866
      3434.27896357
      4746.30150834
      5093.79622928
      5515.57741525
      1216.91638326
      1903.26764237
      3143.46524554
      2236.63422201
      1898.50781580
      1766.90372911
      1221.15207115
      1595.14358482
      -590.75774362
      290.97926424
      946.25898677
      472.21640347
      955.82860560
      -940.20360893
      -1339.02788978
      -70.47309181
      -438.60110608
      14.01319255
      -292.62759798
      -606.14760614
      293.30113535
      -1369.14771580
      -593.77063527
      -311.25656517
      -501.90527989
      403.15681492
      -1629.67900309
      -1582.51358639
      -547.94041077
      -303.71389194
      -206.70138282
      -949.04558302
      -135.86417495
      212.77627290
      -1632.20505289
      -803.79660650
      -423.99084006
      16.03956157
      -517.90468506
      -1470.87083302
      -2938.14431245
      67.19967957
      50559.12764339
      1740.40486241
      85440.05912112
      52683.21149216
      2586.53450409
      55201.88906546
      8922.27112730
      20029.13599783
      -8119.37926304
      3724.89213323
      7377.75906278
      15205.06351282
      7079.62970969
      5366.17883354
      14909.23513933
      8367.98123785
      4507.50759007
      7142.29730207
      957.51383587
      6089.53654470
      6911.05749897
      -567.52099746
      6608.57381580
      7463.64541144
      5694.76088550
      5610.03834011
      -552.86822071
      5408.48324398
      3594.08831556
      3098.37604285
      3115.67981310
      -427.40562967
      2860.27810482
      2829.22130538
      -2092.80808169
      961.76497989
      1748.51692926
      1574.04398599
      -410.14423431
      -735.88905697
      1288.07010097
      537.95269638
      -215.76888520
      -900.74403128
      -85.92258089
      518.09739687
      576.92117996
      -463.55090176
      625.76097051
      708.54606028
      756.27081860
      327.14408888
      -85.14055811
      1075.88473659
      1142.12920802
      384.19838534
      -215.84072857
      399.01194309
      727.37555882
      633.73998074
      -91.51155027
      -52.18989547
      667.66029151
      370.78058085
      424.57977529
      13.08828757
      -11361.36923686
      94.10628843
      37115.32787876
      107128.66235788
      32066.16265264
      29616.18169853
      22594.88182438
      -7577.85358947
      -8264.75865599
      -5168.99971511
      3284.73138807
      6283.65898339
      6824.83552499
      4359.38182174
      12569.28741150
      8144.84199008
      6314.43425039
      5718.12483396
      -1545.31084142
      4947.01491765
      6019.53088043
      -194.11405307
      6205.07293290
      4579.47764817
      1979.29949752
      5543.62486764
      -511.57181162
      3879.28954165
      2315.71320287
      2958.24166319
      2546.14270717
      150.69889843
      2830.89461290
      3290.87606150
      -33.41447349
      1510.22669583
      1532.20153522
      2109.22031397
      641.49614045
      8.20265222
      977.80283452
      563.36687393
      -341.41453544
      -1026.04052039
      339.74512640
      -2.96167977
      1037.87740839
      800.94005533
      1022.46601471
      122.22536833
      275.19205809
      643.34483423
      263.05353660
      1246.31968965
      585.81501748
      -521.20350844
      -19.94493740
      407.25404295
      913.98206995
      534.30217102
      392.91473980
      935.52365316
      42.09631499
      498.13907813
      -235.50629902
      41.72393162
      51885.70533997
      27248.89866042
      49837.70479126
      3034.77565927
      -1953.90251417
      20851.31176919
      22186.67750303
      -15592.00449466
      4954.64077185
      3921.61478433
      -4092.98824498
      12418.53414820
      15081.86000234
      5147.80338569
      11726.63202202
      6055.95860217
      4499.06151717
      5595.26907057
      456.56848167
      4515.93060122
      5912.67424554
      284.48617080
      6185.94142481
      5691.44763667
      3515.08964720
      5889.37948658
      103.79608733
      4141.86448537
      2583.69665461
      2970.09142461
      3211.95038881
      950.51713630
      2639.03882272
      2813.69541437
      -16.31732288
      684.21913038
      -474.91863038
      396.91732103
      1178.76879352
      -1074.00069653
      897.28993741
      84.34322745
      -633.20492061
      -668.97543084
      630.21413649
      19.38714640
      -15.89360194
      146.75784144
      36.82024598
      -290.64241335
      175.74327178
      1178.63396043
      7.29669398
      1094.66338858
      889.90516988
      -482.74213024
      602.61588173
      882.71686383
      663.56374977
      910.98918194
      18.77658730
      541.25046775
      251.71334065
      -42.74291027
      213.69923045
      -4.94343620
      -22286.33230715
      -27443.09080530
      -17919.05220900
      -12852.70140888
      963.62799860
      -8184.12597571
      -10300.23723913
      -8284.42645095
      3927.52045800
      7283.81605509
      -1598.63779555
      13637.81363911
      15019.00346147
      -61.83271153
      13614.72532351
      7683.18940360
      3385.09951942
      6031.86638282
      -1324.89069632
      5861.81881083
      5715.19841163
      -3051.35581565
      4449.34379484
      4375.65684288
      5611.66224657
      6431.71775551
      -1140.79341344
      5502.06723466
      4057.91961287
      3508.88134610
      3880.91311886
      147.61882098
      3673.17901101
      3979.70893307
      -1412.47397746
      2362.08971730
      1941.74923460
      1214.21608224
      1344.10246772
      -952.53689559
      1579.89503609
      1369.75476590
      -125.33361490
      -374.17764314
      116.65400065
      847.64211364
      1631.60704979
      -629.23313524
      1145.32901208
      1199.31571470
      1196.55794258
      1472.98408479
      671.64228235
      1733.46191543
      1960.71517072
      446.33578404
      586.32692627
      979.62312453
      1688.89569083
      1626.78187219
      -136.80036596
      1010.54980722
      803.07823033
      1027.30094066
      331.36907766
      14.16584087
      -24119.08286994
      -20041.37943677
      -2788.24252428
      -15774.94801544
      -10148.20463282
      -6267.47051674
      -7240.40328782
      -4030.56164650
      -333.19817568
      -2022.23812489
      11673.44250486
      2163.50574967
      5042.83667553
      6483.38741308
      2785.82881934
      4123.34852476
      -263.61005063
      1144.24038309
      4031.77336163
      -2168.15579085
      2193.87136314
      1715.69328092
      1804.26500702
      6306.20502197
      -1629.76838143
      749.80299992
      2707.50140914
      320.11626857
      1800.86531472
      481.69579430
      754.53885929
      2370.44133144
      202.51202238
      708.80262180
      1107.98175866
      387.54758950
      786.78959492
      -784.68114770
      -61.46515631
      355.71182754
      -358.35529756
      1852.32203952
      -263.43620628
      -328.82906828
      1547.52692092
      -47.34420832
      -44.84364409
      411.07385065
      782.27004138
      684.04981836
      96.95671626
      954.21884983
      -75.41016627
      968.74009623
      1863.59060001
      -1.31774246
      655.29257666
      1022.48046050
      237.75328831
      390.11966362
      236.44298178
      679.02543283
      460.67216450
      22.57134455
      124.96305994
      13.34549584
      8611.68936817
      12466.53298261
      -6847.84039114
      4920.31850733
      4791.21617648
      -7465.71249031
      18040.02797089
      10472.93767243
      10052.51324766
      13623.10470018
      1918.63167590
      12525.22931854
      12252.04636317
      -2165.97039868
      8832.42450985
      5265.74531493
      1413.98412425
      5302.89900349
      -630.89860299
      7644.42376425
      4684.00829257
      -2778.60846159
      3382.04061261
      4998.11495451
      5983.01951958
      5858.11876925
      -1444.04428966
      5358.14810805
      4208.61731073
      3612.89989700
      4159.39063118
      56.89862542
      3906.51359858
      4085.42581494
      -1241.34823522
      2434.69545511
      2583.22679756
      1691.92427137
      1751.95510602
      -926.12195257
      1884.10857204
      1414.73794073
      280.34370965
      113.47041951
      443.44664894
      1236.77279722
      1761.72316469
      -505.81977334
      1594.98310046
      1593.18048668
      1358.91906176
      2109.01616625
      648.64967628
      2272.59460723
      2388.82721878
      986.21106714
      1337.64000063
      1412.31024429
      1832.95836012
      1974.10630678
      -85.16288563
      999.41106420
      1156.27475373
      680.79011794
      725.47464085
      3.29134469
      17867.22352069
      6136.53384000
      -14378.70210783
      6539.85325601
      5080.68183862
      -2475.97423202
      19394.22369548
      11764.07137228
      12658.37880163
      12292.55465275
      5118.10484877
      9468.30588388
      14515.38569940
      5307.55011346
      5171.06850302
      2490.36104289
      3617.64679309
      4978.49773091
      553.76528299
      8866.32871084
      6306.42372475
      -1504.40033423
      5296.60274850
      5114.62282687
      3422.68021285
      5383.32145156
      1075.85692407
      3883.43350843
      2498.79777278
      3070.58664609
      3351.86247334
      1501.35244983
      3873.39214078
      4175.05867955
      345.15031059
      1990.20310285
      258.69805065
      1176.80533856
      1574.54484286
      -81.05173127
      1319.88410767
      468.76993739
      -783.92768154
      -480.23448663
      468.89945866
      1121.49794356
      1646.97403180
      717.83052891
      1412.14510295
      479.86606936
      846.77248325
      1965.67247225
      588.70322298
      2139.54771788
      1074.09634386
      -752.68312378
      1324.18869420
      951.39515903
      1660.84235513
      1117.69992897
      181.01205334
      1076.23274093
      199.44666164
      879.21866760
      498.44853391
      -164.84127833
      27235.18847033
      18498.39880439
      2061.65244590
      19359.04670515
      16279.09465730
      6069.13612941
      19667.73495085
      12655.07683346
      12982.93494790
      13769.18402722
      4876.17242216
      6595.29777628
      11529.69113787
      3738.99947445
      4104.40214278
      3570.71418683
      3888.38255539
      4838.46719958
      153.42996068
      8547.71854360
      5699.81798402
      -1087.11583193
      4482.27968457
      4668.05006702
      2828.32874816
      4921.83512465
      57.82287145
      3694.22515312
      1708.68097158
      2368.82955129
      3266.78469603
      1396.35851012
      3909.22612510
      3530.84856154
      -413.39168431
      1446.43873655
      80.77850879
      1047.40015817
      1903.97587665
      -482.93077227
      1795.93356473
      289.20744684
      -1015.68606720
      -333.49141750
      801.47583052
      1585.61754265
      1667.91327564
      762.89253437
      1371.17389413
      660.18965868
      840.84104751
      2337.94765008
      1030.84536780
      2493.25804713
      1401.77711660
      -663.64495545
      1989.72308284
      1535.70457922
      1650.91608893
      1545.24557444
      290.13559365
      1342.89412423
      653.45829984
      232.49771110
      566.83602061
      19.38661472
      26743.74243815
      18834.95744096
      238.39053284
      18194.35520542
      16667.97125386
      2246.97550599
      19337.35484033
      14282.96211302
      12346.65067840
      13565.39522960
      1027.49962556
      7210.90759885
      8451.38122313
      -3664.44796044
      8282.62119842
      4997.37459650
      2112.93529982
      6793.09489507
      1115.49323336
      8379.62858222
      6264.00697288
      -2552.08751520
      4340.83522927
      4372.14546486
      6750.84630271
      5444.99132756
      -1062.04264066
      5300.82819966
      3996.68480211
      3585.11529843
      4137.18896882
      358.40804821
      3958.79533464
      4482.17116854
      -1513.07102273
      2733.90086582
      2112.17367974
      1345.56239958
      1520.95496725
      -654.94986572
      1935.40746575
      1560.80874997
      -468.60412482
      -220.03861345
      739.51310936
      1289.69106387
      1898.72135980
      -580.98678220
      1787.64422760
      1917.23292229
      1826.87497885
      2037.80844816
      1184.35089678
      2026.83705274
      2437.83950880
      720.61170916
      900.54773907
      1535.49254972
      1924.88876215
      2057.15039518
      -123.39651038
      1006.97314627
      1285.87431702
      781.72952613
      459.04962539
      157.81274074
      -3267.80104615
      4603.21445729
      17961.68358189
      4608.95304662
      5097.17749135
      10315.14319722
      4316.49202420
      8065.69059501
      5723.19372329
      -221.40080105
      13713.25715783
      -2800.33056503
      17.72363300
      3974.32779276
      -1493.37054673
      1389.09775689
      -454.24895872
      1073.42112707
      4140.98841309
      -805.72711236
      4029.80139109
      3971.32160111
      2060.37663076
      5552.32993776
      -2111.27243283
      1254.47176824
      2258.05034173
      297.53923073
      2058.84905308
      82.11399575
      420.29593147
      2083.24714696
      -78.87892865
      569.87889171
      1465.00553760
      -192.88350280
      576.73959540
      -899.99913532
      -23.24398295
      -30.65080922
      112.10214221
      2373.30479784
      91.34415676
      377.25989663
      1951.04799800
      393.32254859
      521.58772987
      495.85367950
      1409.57926416
      1266.76158832
      549.19686173
      1909.62968794
      -186.47592559
      1938.81637898
      2178.06116412
      312.47221331
      1610.81242836
      1134.11539155
      622.53772686
      722.19959675
      496.67804164
      1008.67457918
      580.75936872
      233.31205635
      375.49469273
      -4.66684022
      19730.28951012
      16861.44697335
      6464.40578887
      16669.58054302
      14554.61085700
      639.34798657
      11997.45617924
      6632.23850385
      4949.65917015
      8091.94911472
      -3363.20792313
      4257.97053561
      5937.45376393
      -3846.95826912
      7432.57894203
      6135.37298387
      4597.46491094
      7704.99229322
      -1276.05394408
      8629.90034109
      8208.72151511
      499.05745989
      5182.14616581
      4338.05658838
      3669.17711995
      5231.87234113
      -1439.42717918
      4606.14629025
      3334.84702668
      2598.65260788
      3623.49819146
      -437.66388821
      3789.36364958
      4163.36197012
      -1944.31169157
      2825.37699310
      1841.96203018
      1103.70959906
      1551.54458098
      -571.71549203
      2302.82358154
      1267.49009062
      -982.20713463
      -736.47056133
      701.78638853
      1568.68967967
      1861.35905384
      -573.36633551
      2052.63661948
      1756.34490461
      1646.80466328
      2437.17197496
      1383.37532734
      2628.78347525
      2228.41609847
      119.13755273
      1357.75424202
      1661.65112580
      2041.74058191
      2125.72769776
      -17.22682622
      1435.27182800
      975.51678620
      505.76252282
      658.94065553
      41.00529764
      17037.92844035
      14163.28048617
      2012.76635877
      11862.40517985
      12932.46166567
      3324.92109869
      12466.76072151
      6515.62639792
      6597.00101784
      7477.90290636
      -3228.66716076
      1254.11183695
      4604.81068867
      -1097.12853445
      8469.95808640
      4937.83949407
      4109.95720736
      8940.00256769
      268.82418646
      9764.71368688
      8972.13837001
      791.11377418
      8062.59674424
      4662.54485594
      2199.55150291
      4452.61288942
      -187.09495887
      4642.58150658
      2709.10771634
      2049.51570019
      3924.80877047
      46.06336010
      3612.37203565
      3813.72521846
      -1476.42593509
      3799.20146986
      1362.86731235
      1059.37754666
      1962.93157918
      -464.55813963
      2577.20571996
      1213.24821803
      -1431.95384663
      -707.57861090
      951.24046162
      1565.24653889
      1745.94771918
      -129.91204956
      2071.51161925
      1796.43558990
      1922.99550902
      2341.45352284
      1550.82377515
      2601.22314177
      2270.05463121
      205.40673385
      1284.96483315
      1616.78807139
      2079.52258288
      2024.35730912
      38.39513644
      1346.82655201
      924.46676317
      753.80360366
      512.02626997
      -42.10143661
      -10323.62795473
      1564.95062584
      16515.53725911
      2032.08630074
      1898.94103093
      4429.04642884
      -2216.01774658
      8491.07283203
      -1763.90278048
      -3815.93160773
      3613.15336490
      2458.15687737
      3111.92864051
      -188.10614881
      -1618.05636233
      5264.61454345
      611.76903630
      184.38082754
      2551.77907571
      -471.67220710
      5161.23260037
      1583.23208860
      858.63559943
      3167.39248106
      2770.01129706
      4594.65917727
      787.38361121
      102.57792193
      2657.44069980
      -232.59641930
      -2.41939441
      1533.22313337
      -76.87710738
      978.86457290
      795.93309321
      -836.02651564
      1065.98527989
      -500.25127543
      -191.97001874
      91.06280253
      -255.04071675
      2781.78081534
      -185.53326383
      454.62223938
      1686.77153296
      694.54246278
      715.48531231
      445.34280433
      1444.52363741
      1547.16915658
      735.10151525
      2122.54684213
      -251.90801191
      2044.28494040
      2353.08432254
      381.43565946
      1719.16746646
      1131.73508643
      687.75482103
      809.06474233
      513.50398086
      997.50782241
      607.18164781
      174.43494131
      364.09359765
      2.40663471
      9488.56426075
      9776.98370372
      -2517.98059183
      8256.66862909
      5169.76273632
      2322.06246788
      6711.80033543
      -1980.34530619
      1843.19457517
      4372.98794638
      -2673.80300950
      5219.13027846
      5040.75996018
      4334.98452541
      8421.71511386
      1827.25996036
      8471.51615000
      5528.38047839
      7703.68517145
      7172.37916920
      -128.17807590
      4598.78507172
      4152.36771179
      -127.50936307
      5893.32434590
      4738.33999144
      3261.23209788
      4509.39675968
      565.97394946
      4264.64124171
      2598.93397960
      2285.23586816
      3243.33343935
      -118.37330502
      3599.15379687
      2099.58740057
      2831.39223642
      2195.67001082
      -249.75770825
      2196.24649216
      1783.67501271
      936.64755646
      1701.34309438
      1860.73776288
      624.47389791
      1333.36583899
      2183.84499526
      -674.62782064
      1890.73937839
      2328.45265287
      2030.87068221
      2442.53435364
      1411.10934574
      2157.71057136
      2641.05084891
      713.22276117
      865.97090379
      1655.58493466
      1745.15116342
      2251.89782189
      -173.97367890
      861.75680464
      1267.43785412
      612.07629883
      612.47082435
      76.97725512
      10386.80226126
      8149.82484902
      -1577.59504970
      6740.88986443
      4626.42881991
      5969.36720088
      6715.28843272
      -7106.86951507
      6164.63159806
      2318.55976194
      3553.50383403
      1844.67952330
      -1540.85691352
      6793.17392741
      7593.89436884
      -2222.42211926
      9011.28967765
      6413.01116315
      6971.89298426
      4681.60802508
      -1057.55485738
      6850.31140199
      5115.83997674
      -298.59534828
      -1632.49658869
      2861.65791636
      3594.09498309
      3268.55356839
      -1051.59937164
      3442.72373972
      2170.85508582
      2881.75128734
      2760.45035946
      -483.56449601
      3330.70441748
      1052.32864551
      -84.84740623
      2754.00423263
      1733.37239201
      1515.16611934
      1254.86488405
      -632.85138298
      710.24904004
      1592.59579167
      701.64268556
      1504.05944792
      1691.92203234
      1246.92582328
      1585.16785976
      473.65274704
      944.20169383
      2488.39205279
      1221.06508006
      2624.85159154
      1717.62292656
      -322.06943522
      2006.70799815
      1314.13944595
      1602.22769492
      1565.30825772
      439.65125379
      1240.97485242
      317.96534505
      401.39964112
      533.56184029
      -57.87306008
      12843.28373239
      6692.75470395
      -1601.02707784
      5983.63887851
      8325.93197716
      -928.67553627
      9557.13290245
      5892.07564713
      2892.17693039
      4983.46580149
      -3486.55470597
      9195.05322259
      9452.02688520
      -2212.86004356
      9258.68215434
      8912.67217914
      5345.60557665
      6861.29535146
      -886.30052274
      6069.60133346
      7185.99726291
      414.40059898
      3972.62489949
      2838.41956262
      1283.40057550
      4005.10909839
      -1157.21293588
      3264.77117935
      3735.82882692
      1872.50744742
      3245.96519973
      598.09020829
      3384.02307365
      3845.16279249
      -1282.11111571
      1939.93306131
      86.58627584
      381.65239980
      2405.67358162
      298.59619384
      1515.30289644
      918.31512396
      -2537.04304734
      -1073.08705169
      676.47157485
      1557.49943944
      1980.73912551
      818.94501691
      1574.93773171
      738.51980609
      744.71513988
      2535.31809435
      983.61775496
      2432.42534683
      1939.02590683
      -591.34648308
      1936.07711762
      1173.50431900
      1318.90709083
      1512.15347146
      299.31536011
      1000.14466117
      182.50418711
      468.69300595
      622.53087391
      -63.57347967
      10504.26378247
      7548.36802732
      -3161.84932364
      7360.56962210
      8630.99252742
      404.79165852
      11612.28470365
      4135.81414239
      4307.84369282
      8322.35181665
      -584.89550425
      9621.40957982
      10893.46942169
      2401.68740173
      12085.13234989
      7441.52761684
      4860.43823707
      7501.34621202
      1669.50386044
      7632.87985167
      6917.71538794
      508.21497520
      6135.68362306
      4379.59228814
      3429.36819883
      2592.69398616
      -473.38190973
      4704.62152060
      3285.28611442
      2525.91551240
      3338.82743618
      672.66377346
      3214.67850354
      3976.29010645
      -869.75709282
      2965.59620227
      2063.39655605
      1189.53677855
      1680.41083765
      -228.87767167
      2410.51456855
      1542.68394305
      -1712.67090046
      -1006.55472658
      1079.65763277
      1286.11919258
      1895.87190101
      3.64820582
      2012.39182199
      2154.15519018
      2135.54986330
      2157.45174910
      1349.96151698
      2392.70823728
      2696.70993319
      872.89014408
      1203.96461634
      1606.56498837
      1822.81425292
      2102.97366499
      69.55355653
      1145.28848147
      1103.88416180
      906.12883841
      654.91652852
      8.91003304
      -14518.13034820
      -768.34320219
      12788.27968551
      -451.66265785
      -621.62616810
      2415.27310684
      -762.20200013
      6970.29105581
      229.62519888
      -805.01349772
      9125.50104275
      1315.52014578
      565.79134264
      3183.43416126
      1247.95912152
      5978.68675964
      1465.42738396
      183.36973336
      4617.25256826
      -131.10017322
      2110.63381862
      2451.03899952
      557.83740284
      3633.05827194
      -115.59375229
      203.56487189
      1264.23934735
      287.39430412
      2119.00984061
      421.91509146
      627.65788216
      1931.54903929
      83.46679255
      613.32121905
      1215.24289314
      250.05657063
      1007.36003639
      -188.80724136
      198.58943167
      -129.10416960
      -71.97367666
      2404.10768926
      146.48907960
      882.10676588
      1931.05220889
      403.60889063
      694.52830007
      560.79603873
      1124.40444229
      1531.23441272
      675.69144780
      1486.66893807
      -267.52716838
      1228.46289867
      1918.81834191
      347.14720853
      1281.02421420
      750.70591262
      327.66779209
      742.45486873
      268.19566098
      665.33096862
      813.05025810
      -25.72073112
      215.65041558
      2.01396563
      9425.77081576
      9972.70054528
      -1609.89458446
      9297.53226197
      7722.95583013
      6625.58832816
      9695.04650141
      2202.08043717
      7963.47193905
      9412.76395682
      -866.58352496
      7818.72214373
      7014.86887403
      6468.32442711
      7828.38205314
      2802.72746534
      6809.73052702
      5147.77322844
      185.11817344
      5999.29352859
      5561.90521537
      -2416.71397366
      2882.54252782
      3540.92546784
      3398.23995103
      3076.98883422
      -1439.93592203
      4470.45843624
      3133.91079764
      2023.55557528
      2553.98887898
      1018.43140766
      3042.48117758
      3655.39300171
      -1660.38615976
      2424.88672823
      1980.38889964
      1077.74911088
      1699.85763651
      -451.51633066
      1359.57668299
      1669.67374943
      -2049.21666772
      -1669.44365938
      647.10742661
      886.53278215
      2266.33940438
      -326.92684747
      1756.38877306
      2012.63283056
      1833.97907504
      2178.47068211
      1042.98878085
      2183.91204983
      2540.50036813
      473.91771288
      1035.30694460
      1365.96283725
      1676.73275883
      2144.23850262
      -93.08171146
      1141.72728478
      1099.19550607
      983.66768053
      712.15444859
      12.60980377
      9909.74570087
      8832.71080781
      -2577.58156299
      8943.93776456
      7383.45131325
      7559.06097852
      8275.97265860
      -3303.10672163
      9543.49057583
      7119.21356705
      1841.98253079
      8558.23298872
      6807.95761830
      6581.46253544
      5638.77410684
      -1997.29535361
      7018.49404965
      3765.60490115
      2006.38245460
      5141.59843981
      6204.42602373
      1330.39502345
      4534.35082844
      1239.90385359
      3249.85534652
      3207.65170683
      535.67261599
      4289.91811021
      1723.38686057
      157.31375228
      1701.31512817
      1989.61066686
      3086.64442098
      2135.69503861
      716.39359765
      2338.13383837
      -308.03858785
      551.04932485
      1289.05867210
      161.07044970
      1195.78830527