<?xml version="1.0"?>
<VTKFile type= "UnstructuredGrid"  version= "0.1"  byte_order= "BigEndian">
<UnstructuredGrid>
<Piece NumberOfPoints="5123" NumberOfCells="5123">
<PointData Scalars="Pressure" Vectors="Velocity">
<DataArray type="Float32" Name="Pressures" format="ascii">
      30297.62104168
      32895.78629612
      -64187.56651992
      44297.38715448
      -74081.75793280
      -12532.86332360
      -88665.68260895
      -27988.40288707
      -9148.95134812
      12790.68556323
      -13882.77238178
      54186.82688169
      14884.09879517
      24873.44402636
      98507.32708420
      40771.47961937
      61119.14989465
      48488.96564229
      22400.86111404
      53574.91402961
      33335.70048781
      16745.00307391
      38162.14329783
      18813.98423186
      18578.35625916
      20941.97511603
      4211.17069370
      22615.17690874
      13752.45309775
      5186.96217199
      22575.73221310
      7747.02197726
      11697.53026998
      10842.38137270
      1397.52654825
      11755.05972532
      7884.94304218
      627.18410410
      6673.82087584
      6712.92830826
      5174.02118781
      4268.09260049
      384.96052182
      3794.55318982
      2563.80695668
      2767.19171187
      2443.52003809
      -282.92698484
      1800.06802168
      1907.89315804
      19.71318789
      1338.90662103
      1061.15004988
      958.09248874
      844.36893902
      -1090.42369259
      559.82861282
      261.55085046
      612.25820301
      -456.18550225
      -1284.05629055
      391.52910630
      -168.17253511
      -1078.30773435
      -521.39733834
      -788.26760866
      64296.68968587
      29784.50791628
      10368.66426419
      36705.23123069
      -27041.78293712
      22967.57146081
      -43983.85525559
      13186.88346537
      2694.84993829
      -6472.31937818
      11321.35315999
      -4577.88007488
      6751.06798654
      9017.36109263
      -3071.11595588
      6869.76378050
      10351.48019872
      9742.19220982
      3711.45685323
      10564.91687937
      11502.08241187
      7972.48289799
      8592.10996234
      9612.68972030
      6409.85065908
      5954.36333407
      2406.45445586
      5690.30560769
      3828.66617982
      1478.08685310
      4727.44448395
      3913.77247130
      3262.73785914
      2061.25566220
      67.80372429
      2736.35665704
      1256.94000227
      105.51060803
      2619.79361849
      1084.46310311
      -458.05458548
      -38.71642885
      -64.91722380
      607.14713430
      139.79595809
      202.17698649
      77.10621214
      700.05431358
      463.15027869
      151.63251761
      -1419.66761977
      330.24925855
      -205.01473011
      76.46711984
      -475.78593431
      668.42701513
      -100.12199819
      -194.07322807
      341.15102671
      -98.79279470
      898.27273922
      -79.81055166
      503.92341289
      -368.11804127
      1009.39030751
      37.82669323
      -30002.75174101
      -13646.57513143
      -66768.57038175
      -3087.50041460
      20333.35612290
      -17467.57031931
      -35417.84625492
      -17169.56585724
      12300.32597411
      19394.72730721
      -8103.26389089
      -3146.97378242
      13986.81006568
      4308.63459447
      11513.86275390
      2925.34171686
      3828.55454950
      10247.11351562
      7846.76478783
      5389.42979443
      6332.54419883
      9721.92766919
      8932.84560172
      6628.47579317
      8261.50746444
      7979.36348347
      3918.98503924
      1689.74686831
      4447.96536630
      5884.01799742
      3188.10074354
      2266.06401491
      2268.99807158
      2952.94903462
      4348.59316397
      398.37366861
      2494.21909133
      1499.28191579
      444.91752285
      1063.16823824
      748.92700483
      1088.24021623
      1247.60549822
      -193.60290195
      120.07781054
      -478.96080116
      66.72849800
      1079.95370840
      -520.35314337
      679.04133431
      -598.31281541
      -1652.72986506
      -382.60585459
      -870.22237416
      -238.95261744
      -401.89323534
      -857.73516484
      -416.16767811
      -1467.20311534
      -723.67570663
      -167.00860016
      -1611.25714975
      -185.16310078
      -1037.80428991
      -3290.41781390
      -137.70089445
      -38700.54618804
      -21967.64183598
      -13654.40087710
      38968.29184403
      -83750.93017723
      80988.58066759
      6291.77021449
      23309.66108037
      17512.93813938
      3824.84215751
      3941.86641480
      19486.59109295
      6728.77662949
      -1580.53779056
      26461.98321439
      12161.32958746
      -2108.94081712
      7323.75901667
      407.57946906
      16415.39463612
      16314.36829035
      6496.60972484
      23436.79214121
      16560.94530793
      7511.61284706
      12455.20338483
      9226.45809887
      8732.05141198
      6413.46959510
      -807.43232043
      9089.92713791
      6214.52334193
      3025.19042409
      4482.30824295
      1527.52976012
      4775.13126917
      3721.87509833
      1781.71621444
      3542.57312845
      2142.35225451
      2352.24408570
      1506.03304691
      -1644.90844673
      2807.32591621
      1345.34919308
      579.39632089
      966.60192887
      -15.96011689
      2185.64865098
      605.40259703
      -355.60777316
      996.21383526
      414.94919991
      292.24910099
      -432.83454191
      -1172.30992251
      855.77913562
      59.41446069
      -379.81558726
      -354.66881770
      -225.37806772
      401.61354024
      -179.06108189
      -1111.46532017
      145.48894058
      505.25275376
      -4530.20955019
      -4577.60548365
      -22945.76717422
      -27090.63916874
      25818.72524643
      17582.37713679
      -14300.76344701
      4994.74308514
      7267.28454651
      -13168.22361914
      10846.50722385
      745.45405201
      6362.29182077
      1440.41861468
      21658.26229986
      18857.58581020
      5527.46458296
      1535.25627437
      -5670.04153331
      15484.02425443
      11718.08350425
      1821.13216654
      23371.25927292
      17045.64815706
      7229.08435404
      11506.90194023
      2846.68814603
      4696.84288249
      7539.65267143
      -196.12449043
      6991.39324739
      5087.05866843
      4132.33622610
      3187.60332212
      1265.85887990
      3114.21328954
      2035.50260741
      1087.86441785
      2295.50502749
      1102.64024971
      2384.64778305
      1403.40541436
      -1053.76541525
      1069.86676944
      1355.14695956
      1272.92760441
      951.11669015
      694.88352049
      658.83706087
      945.49860967
      251.32312564
      220.21567763
      129.77088214
      268.12334426
      20.34907495
      -636.35523092
      -239.01813452
      109.76505753
      320.98084611
      -370.95476494
      -12.65057950
      25.28366410
      525.75081127
      198.18723949
      52.87248588
      19.43205603
      -16597.84931640
      -29864.12907402
      12847.32693178
      3780.16464784
      -28908.68417500
      -19915.18402406
      -35659.96671388
      22716.46874517
      22690.15357373
      -139.65555466
      -7980.17898161
      9437.48302326
      18259.10063823
      2874.50041141
      15649.40703211
      8996.42363125
      1439.45434852
      -1695.25331185
      -6298.94967066
      16526.08922167
      12962.87140221
      3955.72207541
      23862.40067817
      18644.05721252
      8886.71745912
      16798.61227380
      5981.44712053
      4224.32354071
      6862.03576243
      712.77944782
      7567.93592937
      5363.12428429
      3064.85688464
      2331.45920257
      2017.00648864
      4279.75632357
      4065.92390136
      963.41205949
      4330.82541748
      1677.98016337
      2549.68260016
      2377.03817023
      -1693.50379051
      1623.69520544
      1394.53912361
      724.96793429
      1712.72957041
      479.72957139
      609.26271231
      940.40213626
      -124.49441857
      488.71097627
      343.93647017
      608.37999883
      94.99752108
      -1141.03665452
      -37.42128016
      344.46618080
      266.67578434
      -22.32386556
      -100.09237905
      -7.08265624
      482.48674315
      -124.13501002
      -111.47716252
      85.89354442
      -18243.65515729
      9312.72162480
      -2082.81019384
      32070.11976020
      10408.13953337
      -78.32752448
      -9287.16641043
      -10550.75113343
      708.22005050
      -6012.70494205
      -6174.97334859
      15321.75529015
      20314.01660471
      -2045.71285171
      15817.66303183
      9566.22775028
      -5026.82688220
      3054.58252585
      -5492.60414846
      14375.66208185
      16946.26686985
      3421.04560222
      23976.13703030
      13104.18642275
      3746.53168349
      14864.68410080
      7871.72177006
      8415.61593657
      7621.84722059
      -1283.69274961
      8345.96541519
      5325.23341351
      2011.25407509
      4294.01356728
      433.91650418
      4617.73715209
      3450.03671053
      485.50151650
      2927.63365315
      2113.72108710
      1124.66773690
      1956.87770885
      -1643.00970155
      2194.99235578
      1283.93092244
      -650.04192092
      813.77210663
      487.97771432
      586.63430055
      328.69168919
      -459.48491475
      156.44463675
      -109.78681972
      -387.94936697
      37.40779467
      -1104.55903709
      47.82692938
      -42.52851567
      -445.08107074
      241.22151173
      -40.73007291
      220.68697694
      277.29612777
      -260.63185970
      98.07032458
      122.90203815
      5063.76734126
      -992.47877855
      15049.04873657
      7387.41111999
      4025.19631232
      20980.59046876
      -2911.58459284
      -10210.19384017
      709.08385848
      -9332.00376282
      10752.16461547
      3350.90936309
      7845.20323572
      7122.54013808
      296.73979897
      3649.79183370
      -7984.36258915
      -9123.82591601
      8480.97499430
      -2860.22205206
      -508.90174995
      11693.44438950
      6356.09269138
      6070.69938562
      5146.89851921
      2959.83824376
      4312.33447602
      -815.53642174
      2782.15649344
      5369.55681334
      1505.17633087
      2193.66568361
      309.12438520
      -292.84890172
      4290.29254654
      -2630.95671622
      -71.58127823
      1554.36597657
      -476.31440662
      452.56384535
      -574.74934207
      -521.41440294
      1980.59330193
      -1524.49917497
      433.98384613
      755.55553863
      -797.64996747
      673.76446743
      -1533.63751277
      -54.49950693
      424.87618573
      -708.62151720
      -415.01360510
      -760.48974089
      -636.15145979
      579.79885115
      -819.48229828
      -171.60298776
      -49.49894500
      -584.85462026
      -20.98936227
      -484.87749689
      206.20507719
      204.69504789
      -48.58493092
      173.08725989
      17154.78006427
      8073.68386246
      5158.22605043
      11370.42013722
      6432.68405003
      5477.01512074
      22486.43182207
      12820.18337971
      6141.89780037
      128.11368809
      -5885.25249291
      5594.99208836
      11127.30579956
      -7794.11753587
      4132.78139695
      277.99714940
      -10573.46669842
      3165.26577366
      616.64037359
      24351.18596470
      19615.16468853
      1864.43335420
      21858.54886198
      17859.16641137
      7242.62715897
      14920.50384384
      5435.87478174
      8470.82069132
      8362.60179847
      -2046.04231645
      7714.07314215
      4357.07975555
      1335.54543953
      2686.86914914
      -182.87214416
      4342.72873939
      3604.38211709
      45.39494150
      3836.92063886
      2216.47325590
      1127.37948945
      1864.68894628
      -1729.83042073
      1333.03274569
      1402.98068705
      -850.51783760
      835.11716849
      228.60185853
      704.25210634
      419.90724713
      -550.52605361
      225.21710385
      -193.34939577
      -349.66302063
      -99.36225384
      -960.56364943
      -25.68428881
      101.13805993
      -525.09754447
      111.92674288
      -66.78027143
      204.47715233
      271.44363804
      -169.17993073
      195.99594379
      123.53671500
      43861.24715170
      20241.38803564
      -3134.26510978
      -5256.34774940
      -10083.27360134
      -672.91432597
      23698.26978940
      19356.28529247
      -539.50401256
      -5605.48777470
      12078.43564821
      488.34708963
      10989.48509153
      4165.13823382
      -8382.86046717
      -10903.28172790
      -2237.98465403
      5267.12560346
      -5619.36302897
      25011.69549917
      23025.86916348
      4333.60453047
      20665.33017794
      14648.22444351
      7027.85110068
      11868.69625913
      3559.05127510
      6408.30257573
      8795.49214461
      652.38855396
      6658.23934185
      4823.28971878
      2286.47708668
      1270.95788005
      1806.51392977
      3035.84373216
      2745.71508669
      1260.69949982
      2885.86308943
      1383.18604478
      2531.06869666
      1184.98886093
      -1183.14984860
      41.50232538
      1102.33098071
      770.57906244
      359.55900920
      675.35436125
      -65.47163110
      1013.96572155
      -333.77772839
      295.84065911
      640.97011693
      501.37100997
      -412.49564686
      -1279.92253555
      -367.00611886
      337.73438537
      291.17655880
      -227.26571353
      -103.67904356
      2.23454153
      597.21253205
      -51.19436693
      202.90282075
      181.12145361
      67328.60904122
      17779.93590704
      3730.74710310
      19106.91937505
      21800.71036000
      1256.46213444
      -7607.45512894
      6739.84371262
      -3445.71510157
      -1662.91834368
      3463.16813623
      -16154.18832177
      -2.71321025
      -6327.44799767
      -8343.76726044
      -3053.14156984
      197.88787955
      28788.74982178
      13959.77719065
      17390.42016538
      20844.14420412
      4094.64789017
      17805.40449220
      13211.75159434
      4064.29800156
      13078.40121408
      2826.62354467
      4875.59858654
      8069.96491646
      -444.04664364
      6037.40172029
      3788.01157342
      1535.29403980
      1202.67073000
      1212.52166352
      2456.53082779
      2642.09400258
      914.88709818
      3571.01145961
      1162.28314372
      2334.96293650
      1164.55684197
      -2501.19956112
      -41.89678982
      1259.67675527
      557.97475588
      542.14364420
      503.43059680
      -373.88874817
      755.85226619
      -321.07004674
      162.05347710
      482.10551647
      376.64801773
      -688.10970955
      -1601.37649848
      -337.79533191
      324.90546926
      436.15193316
      -368.04464475
      -157.19178522
      -117.41034821
      519.67372746
      -13.65514781
      95.67184097
      200.26141997
      41768.83940278
      17303.24226422
      -4085.26461433
      10822.12729753
      6357.50906958
      -5994.61197831
      6569.00522497
      12608.53431421
      4622.24450828
      2894.50432990
      -5033.20177455
      -11847.20461625
      -2802.09524628
      -13372.35269048
      -4103.73136039
      2630.07870042
      -773.45512996
      30655.94792424
      20777.41429557
      23252.94601937
      21219.91594375
      5669.54650222
      19151.73781501
      10081.15406833
      806.81625434
      11280.93650213
      7050.45952718
      8957.37349504
      6731.00058015
      -967.08412044
      7351.72313979
      3569.23075500
      -23.90451309
      3166.33705901
      414.75798949
      4446.43459340
      3283.10785245
      287.41098935
      2553.31248533
      1530.72487240
      700.18594886
      1668.71707326
      -1735.19838599
      1590.94005914
      1221.26956193
      -724.19614493
      1061.62126175
      42.69212616
      520.33356482
      206.66253460
      -302.19792616
      109.10984039
      -297.83185005
      -610.03064189
      -325.95716334
      -1412.22537365
      -204.83136015
      -81.91607860
      -492.65033509
      251.95230086
      -170.84762746
      244.70487557
      177.72119486
      -107.40777066
      189.28740033
      124.46019718
      18189.29147329
      13047.68063917
      24374.53276139
      189.83707075
      -4833.22259491
      1603.45686167
      -9715.76943866
      530.48145034
      -1806.57272234
      -12656.18723953
      14622.73880638
      -15445.31178463
      -11327.42623088
      3425.17649779
      -16180.17667818
      -9324.52394156
      2479.57516469
      735.93787893
      6030.62845039
      7434.05438602
      11186.72381342
      12196.27382662
      3566.38291244
      5650.16236225
      4026.25658119
      34.41390563
      2438.46006110
      -370.40774866
      2187.98547420
      4527.88851284
      -176.71236159
      875.96321944
      -698.59627929
      -1687.60369342
      3400.46592545
      -2971.08855741
      465.50091319
      1546.61761177
      -1021.83656735
      -129.92888479
      -520.69945211
      -1403.20100690
      2150.63462929
      -1764.65550503
      172.78154950
      796.90347213
      -1337.08256163
      710.29271441
      -1614.49062182
      -454.29182573
      340.65123013
      -1156.60954397
      -776.34370454
      -984.10688094
      -1173.05924012
      812.70401649
      -1376.06319831
      -571.32982322
      -26.89957714
      -682.90962446
      120.97562098
      -412.85939508
      208.94055103
      71.38225562
      15.91556089
      85.38969105
      18266.70619556
      -3649.96105602
      -3692.97871975
      7055.43235500
      10099.81286528
      -6999.18586872
      -10372.66202865
      -24076.62486902
      -23248.57806179
      -12983.23043893
      -20902.77573657
      -4392.40199016
      -5228.19507326
      -11547.22435773
      19494.97457154
      6768.59395806
      -1496.81987195
      30075.22283993
      19702.85629876
      18389.04895147
      18713.56271827
      1794.01090040
      14248.32836119
      10221.55576208
      1991.48072530
      11066.87093969
      4327.68652847
      5438.03072543
      6334.02554426
      -2385.55543193
      5909.74951879
      2798.95075868
      227.09391642
      2543.72636566
      334.29117704
      3265.05102406
      3190.76233396
      210.96907795
      2387.46599862
      1370.24442774
      527.88070468
      541.75009604
      -2622.68597163
      920.24274430
      907.48019353
      -928.82705752
      439.04599093
      -46.90460874
      -135.04670684
      149.74962487
      -426.89504241
      -287.17409599
      -105.60825193
      -327.10825557
      -372.78341027
      -1615.60709697
      -366.54974539
      -143.44148972
      -311.58700456
      -113.52773343
      -78.79312429
      46.33924162
      219.38405472
      -19.87221764
      84.79218499
      89.42259441
      -590.50852502
      9121.30760123
      8977.55242219
      7216.39973329
      7522.18459826
      -1015.78544141
      3478.49434335
      -13502.20587834
      -9828.31142184
      -2601.56678489
      -17680.23177968
      -3476.76889397
      -3381.41869083
      -7379.35494291
      25677.15187320
      18485.03414295
      8001.68177685
      36361.55921511
      21596.85939592
      17279.74855705
      16524.57031016
      4881.33566683
      13313.95549111
      9942.61046112
      892.69225991
      10529.11047959
      4435.40087191
      5773.71486347
      5557.21503664
      -915.76508881
      6591.09931782
      4535.05452046
      -1591.33866305
      3121.92425783
      1635.75825432
      2778.81095740
      3192.28333488
      230.48541069
      2220.62638917
      986.99706568
      1834.09374750
      -61.34243543
      -1930.84292528
      1019.48239829
      477.62794608
      -613.01263392
      979.85019473
      -32.30871527
      -134.39394846
      453.53843883
      -478.72957055
      -480.02905175
      -294.38767770
      -650.34140378
      -498.52431516
      -1660.32942731
      -569.01089924
      -249.94601282
      -454.98976144
      8.29914441
      -104.50203787
      30.76830029
      103.13289846
      -35.23431631
      104.98812037
      94.45542919
      -19607.46713868
      -9002.38174116
      14666.64570596
      -10746.67810004
      -12551.10937269
      -5265.84758807
      -15119.65964348
      -3856.08262535
      -11856.38632904
      -14136.60882965
      -4361.35660898
      7053.67324440
      8483.09838133
      1371.93005342
      3240.09184133
      9905.46633629
      7907.94872552
      5519.33789225
      9178.62114176
      5145.96197859
      10245.06661910
      6841.63002918
      1320.44475872
      5323.95569444
      5334.58331238
      4226.95855237
      3930.12052273
      -125.48101636
      4826.37569683
      618.74240945
      -1156.70806200
      1590.64224425
      1890.76748802
      2158.24952660
      3312.10069758
      -2335.27626466
      1646.52073105
      1715.92725665
      551.79836292
      663.35978816
      -722.06122949
      983.71277770
      3.78834489
      -2156.48197620
      950.81322514
      -372.36777426
      -1666.79741629
      654.23456759
      -2207.07503372
      -326.95494128
      822.43493155
      -1452.70368281
      -733.71019771
      -917.02786351
      -1338.26743300
      869.08449620
      -1426.19993718
      -655.32511349
      16.67957984
      -813.30094162
      -10.23858607
      -567.85439809
      145.42004626
      103.98392524
      -78.81771189
      37.24491519
      12461.55273622
      -2287.71075913
      -10677.33218084
      7131.37997684
      3656.97941406
      204.77798211
      2119.13681337
      -13118.20371939
      3904.36218845
      4605.53640073
      -9591.09195495
      16209.62771575
      17332.15203555
      19791.05068098
      26396.80396173
      10061.93244324
      21133.14643521
      18672.49491703
      16821.93226300
      15824.03495022
      2837.30181432
      10788.69127026
      9238.90869404
      1872.40168818
      2265.15039858
      5778.81389161
      10884.16123198
      4855.28913525
      467.19272142
      3545.13123067
      4075.07392635
      -89.90959169
      1915.17991599
      1990.17251621
      3765.33290477
      3106.76710858
      1298.22037416
      853.83739135
      873.30929330
      2102.91418511
      -189.54711467
      -492.90700820
      -273.05735280
      1133.36277919
      -355.28313870
      -485.46679880
      41.30744011
      -1162.37076413
      1426.97031898
      -118.31795475
      -189.99367680
      -464.04061911
      -652.52090681
      -1129.64275403
      -928.40730164
      -1445.12986268
      -586.52600257
      -469.81223968
      -754.34186376
      12.56941806
      -311.92978595
      47.84384926
      -4.17096069
      -89.70495892
      203.34274499
      124.03230915
      13764.98883822
      6042.13665513
      -7240.08850942
      9539.35598765
      -567.92477631
      -999.55508868
      9996.66012670
      -13078.97806013
      9138.02836465
      16984.48563673
      2090.78620182
      4742.64541107
      5193.52358249
      19463.79434340
      21480.13405665
      7737.27296121
      19154.47937855
      15909.37850620
      11147.53024018
      12602.72074745
      737.32260127
      11101.84835880
      7264.78635403
      2880.10115736
      2069.15907111
      2471.02515967
      4120.16166805
      4445.62376539
      -1605.15700132
      4414.28087618
      1390.90858650
      1956.56532383
      1502.55843874
      -2276.02474955
      3571.55597189
      875.36921419
      511.32617010
      2420.12664423
      -17.66311819
      345.92941422
      959.93796164
      -3442.51177369
      1487.06914635
      -917.75623392
      -1391.86071170
      1533.62860171
      -421.35792064
      136.28673708
      1199.37998366
      52.88533336
      -237.55285749
      -457.54794276
      555.43604924
      -272.79481617
      -1510.42665654
      -1225.33059856
      -907.56957556
      12.29969053
      114.41773963
      -496.98651077
      -352.26300094
      -184.41080039
      145.77571465
      -217.95226615
      289.64311382
      148.15849786
      28235.62805799
      11640.49958680
      -2369.46603512
      16040.72998122
      9734.93580311
      -4546.03754170
      27219.43253246
      10073.62702151
      1072.50704870
      37800.36397176
      16802.43033893
      19769.09754022
      20536.53700657
      3531.71251783
      20312.97582834
      16858.40190329
      4768.21617272
      15858.94120621
      9607.78226758
      8406.53505601
      9445.71780119
      -1366.33137715
      9722.46870858
      5782.47834230
      901.24940486
      6047.81399639
      4058.32403318
      3270.67976860
      4455.97151225
      -4231.57230859
      3667.51419510
      3561.77366363
      342.80108264
      3305.80016072
      -238.86434390
      1198.81290814
      2560.22556487
      -488.92016977
      1764.29689862
      1486.03855310
      722.18605390
      572.03323249
      -3945.99325092
      282.67878693
      1176.70709174
      -1240.20747948
      196.84730403
      415.79980707
      -873.37236232
      206.42982288
      -395.39086625
      -279.34375644
      460.68544459
      -132.09594130
      -1419.26866942
      -1303.20474334
      -948.45027165
      -129.89380575
      151.35518917
      -689.13746751
      -484.84219207
      -268.37824353
      224.30692412
      -258.57222320
      140.80083023
      132.84024951
      23678.14393697
      17282.23873739
      1258.06831890
      20531.80286642
      21534.59272110
      9036.29918698
      31918.83020767
      22632.33634614
      20501.40892194
      40615.42357664
      20513.11396445
      18460.51108257
      18228.86329128
      12120.74323756
      24566.04123202
      17436.54424847
      7731.29530068
      18290.97067537
      10503.09289243
      7603.47752944
      8566.31518430
      2253.49462498
      9021.88709184
      7728.27028258
      1729.98752425
      7658.02303726
      3408.64327129
      2827.43883055
      3910.28845218
      -1216.86085038
      4411.68467525
      3372.37049595
      -110.10387549
      3188.49568303
      1899.44927816
      2733.48879080
      1774.99075020
      -504.67164610
      860.01038995
      102.07771819
      -287.71488141
      -226.17852683
      -1805.48216103
      402.68845475
      -83.60214150
      -1365.53379785
      478.07675219
      -107.07938305
      36.07503702
      -118.32639923
      -287.50350000
      -563.27149102
      -994.97478135
      -1841.15056958
      -993.25689202
      -1353.18666744
      -831.60462775
      -609.05102669
      -1107.27413606
      -203.06753150
      -427.46886608
      -80.37459590
      -25.74239717
      -123.79788193
      130.67166591
      111.50457520
      -4631.86611367
      4136.77837839
      19349.85061742
      6133.27198464
      6276.02019860
      9745.72088218
      5748.61608134
      13959.98917985
      5602.64565152
      5301.33885686
      14877.21929457
      13594.10422816
      13172.46556493
      8062.54024506
      3958.48048004
      7856.35269841
      6119.07915985
      1794.91734437
      4461.68532336
      8635.61557295
      6705.11237033
      3801.07252765
      -10.36721226
      3975.07893814
      1928.93293451
      -1942.73607172
      1420.98025095
      -2370.10843392
      -1280.32351108
      3509.21093376
      -1744.68626150
      -308.40743429
      1494.77869777
      -720.29532947
      1717.94819305
      -2528.86829724
      -120.64124444
      896.28710091
      -1999.34443546
      -1129.00693109
      -669.60213615
      -1882.55649478
      1639.84342311
      -1483.36681342
      150.27330286
      339.23359556
      -1412.59594476
      601.46021515
      -1602.77027470
      -276.33299032
      673.92891707
      -1347.30935183
      -689.75608759
      -578.92161313
      -1065.35523777
      822.87421165
      -1337.80211937
      -474.52205200
      -108.28134862
      -937.83324557
      -324.48562257
      -861.59149616
      -37.37588005
      21.55580757
      -231.32918964
      17.66347073
      19979.52751381
      16490.73700751
      6351.38126912
      18317.84402347
      16082.96220290
      14128.00286166
      17421.76146237
      6455.98489067
      17866.31301721
      18302.24474133
      4771.00671467
      16575.14968336
      15234.78886300
      8952.20143916
      12165.52413614
      2151.87082884
      8734.98037144
      10367.42507377
      700.19070647
      7315.70138943
      8333.70994972
      4833.18267101
      5833.36318704
      1407.15645304
      3073.79801060
      3040.03965613
      2037.08540289
      4193.06966931
      100.01383969
      -11.08727517
      4221.23007077
      2018.79865833
      548.68282129
      2237.64680362
      -137.95551875
      865.52506387
      1395.99053440
      -918.92561852
      417.91903763
      292.13811154
      -6.53428477
      -449.10198351
      -2670.71154786
      738.08927850
      211.44470485
      -1116.30192700
      -41.55853949
      -321.10646089
      -248.75069497
      -470.01877912
      -168.85190336
      -808.44922158
      -972.98322589
      -1385.95883735
      -1275.95019946
      -1337.32000381
      -669.60474123
      -726.36406558
      -844.11779344
      -295.61390525
      -408.37708760
      -335.51340340
      -228.12335604
      -172.72194720
      -44.56063046
      -16.27589863
      17578.58792310
      17401.26791398
      1200.33321984
      15783.33058177
      12646.31095993
      11477.02289007
      15575.20861542
      4487.39650094
      13459.37820146
      12820.74773766
      2721.83760846
      7523.09873079
      4776.20851220
      10301.40945615
      9145.13924104
      876.63900279
      7787.24876488
      7163.67649782
      4551.93843803
      6560.68913279
      3753.18164492
      6865.42119068
      3564.07902839
      503.28896874
      3661.07996334
      1664.60984720
      -563.30901325