<?xml version="1.0"?>
<VTKFile type= "UnstructuredGrid"  version= "0.1"  byte_order= "BigEndian">
<UnstructuredGrid>
<Piece NumberOfPoints="5123" NumberOfCells="5123">
<PointData Scalars="Pressure" Vectors="Velocity">
<DataArray type="Float32" Name="Pressures" format="ascii">
      -1715.30418577
      3826.59879093
      4118.36295249
      -35561.77368429
      -25076.91863939
      6169.55113931
      -20482.92742986
      7667.65883304
      2081.64859192
      -37979.07088609
      5130.07596023
      -24929.46055353
      6723.43344531
      1139.71469108
      -24289.64383439
      907.69959202
      -28172.76905675
      5601.35383298
      -1139.24063322
      -19896.22698744
      -862.59185593
      -5060.35974308
      1219.73386804
      10.52786476
      2990.20607349
      252.69981410
      619.68442076
      -1935.24558535
      141.79083419
      -1020.88395188
      -1030.79610987
      -163.02705940
      380.12328451
      1721.73923922
      2100.09710255
      -35.13880253
      1322.56123156
      6926.42314606
      -855.01734524
      -1551.02497023
      937.72294956
      280.44627615
      -144.70163142
      1397.44843928
      976.06828746
      -538.68928979
      189.77770682
      -42.63636317
      478.01851556
      -1340.05589934
      541.73635088
      -269.66870336
      -691.94895570
      -714.95214785
      -1496.61843942
      -276.72460264
      979.36644561
      674.29222587
      726.98696951
      543.97767886
      362.72588848
      292.94288037
      1141.08467297
      1131.79700573
      435.36148318
      11.67531336
      3818.73079967
      7064.96113671
      5121.67698226
      7655.11271231
      2010.26365922
      105.31889805
      1545.12689579
      1638.22540495
      2101.38816808
      2902.08939107
      -1255.35127398
      1625.99218448
      -829.05171447
      2230.45184545
      2366.80276211
      3384.44223286
      6072.93559103
      2433.35866513
      2749.98357248
      -743.14717252
      -80.24602470
      1969.07636919
      3332.15069766
      935.71529183
      3732.82540866
      456.84062184
      1639.19747925
      3039.78705575
      4221.18433489
      602.81587586
      1031.64890024
      -779.39884971
      2503.51882365
      -144.16078842
      964.65537289
      4460.81732941
      -849.65995336
      -558.77986555
      -301.71021097
      531.54149167
      143.64031972
      5081.51102510
      402.47632950
      68.07104198
      712.33907621
      520.30413396
      592.48462606
      6084.49438231
      219.35717939
      1148.08677566
      568.47853700
      -451.30984566
      580.48585929
      390.86794438
      386.93559961
      3051.81003393
      -963.36315646
      -487.38957373
      -2933.64006600
      -1286.25872307
      -1420.08102900
      -761.19128041
      613.04478815
      692.14877732
      530.38354075
      518.39800457
      6618.34405458
      3614.17607252
      4409.34683235
      -4481.22759549
      4666.48480413
      3059.48979316
      1700.10418507
      4234.57994985
      4352.00965066
      1501.93797060
      1194.00264268
      4914.81852669
      1039.19112605
      2247.91453727
      3887.98738748
      1798.68966842
      5245.40099468
      -1112.98991184
      4955.83844614
      6669.61299482
      5276.82558925
      5172.21738096
      3601.19841028
      -3471.86199011
      -3339.56895976
      3111.74592225
      3227.77025601
      -5886.91536767
      7321.49298507
      141.79734362
      2217.37728280
      259.89475615
      3282.38242327
      3048.56978707
      1447.98043532
      254.65513792
      -279.92522398
      -1875.94398933
      6990.10173606
      259.07002116
      -433.98849368
      1278.49216103
      -29.81014481
      5365.96447111
      539.96798617
      -1510.92700542
      5246.66876490
      2471.43049113
      133.55283035
      1452.46530712
      -3893.40080141
      453.23876661
      -793.81807047
      2473.71605532
      3722.60300700
      4419.60924550
      835.77221304
      1365.89570452
      3591.34476305
      3273.82922125
      285.30241100
      -328.85039058
      -952.00858424
      343.28114163
      434.44769106
      524.16674401
      4314.39311544
      3286.86981302
      5035.68642891
      6086.91459894
      6414.92104788
      1834.82014183
      5110.89567800
      2650.49576799
      1263.74062019
      896.12238924
      4000.15048877
      4490.56687954
      6043.33206779
      1122.53818523
      4228.23273700
      2745.83791708
      2862.11632390
      977.99930311
      2124.24944006
      5772.28085606
      1986.90400565
      8157.52718731
      4112.49026947
      2067.96225806
      -3058.52268328
      3292.63973051
      2782.87433205
      2283.04632735
      -2711.54505632
      6884.80977113
      604.57054226
      2707.41535048
      2919.92411029
      1411.69062904
      5170.82301602
      1637.89703364
      -302.86828149
      5184.43432496
      605.39642294
      -208.94632030
      -522.20595899
      -475.78516120
      326.73735871
      -868.74558051
      10796.11150914
      1344.37215352
      1389.01446745
      -974.85077325
      1349.49980772
      -896.01952690
      -1374.84141643
      2132.15865420
      38.21327008
      -2331.42288582
      1406.55841878
      675.37717313
      1753.21800428
      594.71755814
      1515.34610509
      1834.48877369
      -851.57407049
      184.86784337
      653.19849110
      1272.22856695
      -1378.37227976
      -1283.93165167
      7272.12077701
      3456.84675564
      11334.23917101
      9522.64733050
      1901.56458514
      13156.04908025
      10598.49022045
      8711.91758029
      1340.09653321
      2356.22906446
      566.29674027
      -1815.85807246
      713.34726235
      2462.69679478
      4375.66054356
      7832.38899071
      7019.71520061
      1741.73785309
      1393.62603039
      2780.61032524
      3231.40740589
      1254.03142728
      2738.48377901
      1473.68918509
      1891.90820476
      6893.04525608
      9086.45131799
      3399.33595874
      4490.08921871
      2858.83728228
      2368.87602536
      3303.89658707
      3341.83995767
      -1645.81173104
      5205.01387970
      -132.62711714
      4733.72755564
      2613.56803391
      2623.53406825
      6914.95301893
      -291.20974612
      -25.71836425
      -1567.10547148
      2486.35778794
      4615.22068845
      3378.12539828
      1004.55330662
      3316.77978124
      521.70610897
      -1780.55450395
      5052.21975155
      -487.34670938
      2280.76622162
      2496.82584120
      -316.97111884
      -288.20268419
      596.94334782
      2295.77790050
      -455.92420180
      513.45402640
      151.12335461
      253.21480246
      570.47865649
      -1292.37811312
      -1066.02418370
      -332.31092021
      -17305.06999468
      5946.51021762
      -6325.23920746
      1441.80558295
      8213.49279002
      1688.76096697
      10945.26212871
      6042.04671884
      11876.49248704
      3787.29062647
      3740.80376372
      4111.25884885
      5677.97746305
      2174.63837003
      2549.21338712
      7347.74146083
      4783.84480535
      1756.00379415
      3415.17432113
      3417.95978526
      514.80401959
      3406.64194407
      1621.97026466
      4962.77955937
      6924.61779254
      1474.41236662
      4200.16993406
      2495.76618493
      3312.30025081
      1443.02865927
      4911.05535571
      -2743.51999356
      1490.90920383
      1985.41434465
      -845.61494500
      1283.06052235
      2739.86401618
      -1380.68060912
      3332.75140245
      1398.77545932
      2468.29063986
      1381.68226717
      2089.06684816
      994.44676465
      2739.26959292
      -3399.63142111
      2541.79037039
      4321.16991853
      698.81625772
      1823.13342855
      1005.69176384
      769.48868166
      3179.50278588
      414.77895919
      577.47389233
      1193.78023807
      2988.62441128
      4272.36957045
      4454.52522386
      329.71539293
      754.33296599
      -1349.76473184
      1415.04670361
      -298.23656728
      609.36977426
      869.04680201
      -28807.02041058
      9539.94089879
      6038.65824013
      1463.04572186
      1874.58226199
      6388.49081597
      4660.87343077
      4556.12180839
      2704.78871105
      3829.27015962
      3205.02017654
      6175.99605437
      5085.21238114
      5484.21244628
      1066.45387577
      931.28702420
      5421.27293596
      4825.23872681
      4507.83135557
      5609.39559308
      974.73805715
      1253.33923228
      1502.25239537
      5397.86284936
      1135.02525712
      3988.33912316
      7538.03973329
      4693.89973441
      5296.44856768
      2306.34368918
      988.76191682
      -307.53423683
      -3202.78446462
      1675.92949560
      6245.95648680
      -448.06734154
      10271.94332076
      -2038.14298364
      4685.43222199
      -119.52365774
      2333.52343928
      7146.69868767
      3972.22668609
      1209.61425796
      4498.35329596
      590.35887917
      804.06910044
      1410.81535189
      1060.78573702
      4531.14954674
      1304.21185796
      1864.62642794
      1751.12767037
      -1661.40909524
      5298.73115715
      -4283.44625135
      -2144.25401539
      -906.26347740
      2780.54277739
      3011.66552268
      -81.47204817
      98.16615945
      2192.11055412
      -3986.19123421
      77.18295996
      -991.07888906
      8499.88065911
      3851.67429570
      4978.98426338
      2131.31733855
      3025.26805969
      3097.00792358
      5325.22533032
      9282.46678675
      4748.39926215
      1503.02955788
      4994.64680779
      6052.81915734
      3070.49922688
      3560.72230070
      4776.99822319
      1157.05104861
      451.70965106
      726.94398780
      1033.44920470
      -3637.26023114
      1369.69364287
      6527.99965775
      5943.34753351
      8322.65601856
      6841.46982260
      -1495.14943802
      2268.47061490
      1401.05133578
      6605.20127382
      1105.46432371
      6950.55872365
      -1541.99992392
      5421.67330943
      89.48461325
      797.11024666
      -25.49252202
      6264.40241813
      2757.37169604
      2362.47121747
      3429.82706569
      3542.56731208
      3074.00927038
      368.14889928
      267.29517960
      4736.16914287
      387.40965531
      1639.96296989
      -4145.29719299
      1317.27556757
      3102.69366863
      374.27176027
      1788.98945667
      2729.78891117
      1968.85278078
      1269.34701632
      163.47532219
      -463.05358456
      432.51706330
      4700.77396255
      3505.66206456
      225.11249753
      1047.61135688
      3409.42124348
      -5179.99991482
      -81.46818818
      462.25589379
      -18063.76538625
      4018.90484207
      2859.51080271
      8255.29566343
      12053.08613232
      2548.90593847
      6243.95580662
      9303.29955115
      6371.00184112
      4204.60811473
      11227.44276969
      5139.56114543
      2864.14376950
      2569.39376782
      1747.62348385
      3216.69265398
      4177.33615196
      1341.15149760
      2546.99033660
      2569.49304794
      11041.90506230
      -3710.29504048
      3410.54845658
      3388.85237192
      4246.83436719
      5772.34522630
      -1817.06205120
      1439.69160484
      1671.34191707
      559.45858333
      5413.78411446
      3616.86212129
      2507.17584393
      886.20611308
      8936.82843406
      3327.78104400
      1778.34761838
      1206.70371793
      7454.32374609
      2492.61153021
      -890.71726340
      1125.98812187
      1713.10788430
      2681.39944086
      2479.03646430
      607.93406655
      4752.69831255
      1081.42313762
      627.56719660
      1926.26336554
      5825.14876411
      -1072.27394687
      1972.25813208
      887.45589132
      386.25762877
      450.12531175
      51.62849183
      682.77012530
      2416.07033100
      147.41796011
      -407.31991677
      -363.30792126
      3060.70756492
      -1386.25927204
      87.06400336
      1476.84164966
      -35532.71009678
      5974.43111497
      20955.49122134
      15301.92899528
      6791.32759849
      2773.83797078
      7735.63345449
      1718.66134640
      4459.70750418
      6001.07809583
      3918.55538344
      -703.60817564
      354.36858893
      1854.53599700
      -1357.89702855
      11371.52763791
      -76.95997488
      1431.59709091
      4404.33115233
      4176.86700686
      388.63629779
      3922.29255832
      4463.03992205
      5972.00102662
      2613.07048988
      2598.41446507
      2114.54120133
      -506.73327788
      3954.24799816
      3852.28602263
      2567.42109496
      -1019.13972813
      651.55164792
      5967.82794892
      4140.06644857
      1851.35403939
      4411.61263141
      310.02933721
      3121.26203547
      2735.58071734
      -1046.22187774
      1600.26536485
      756.76733757
      1689.25151588
      3452.66369686
      4810.83933956
      2070.80451888
      814.95218802
      310.17409097
      2076.81735790
      932.89285157
      2266.97753649
      2628.05210037
      2671.14527389
      270.01220396
      2047.69353411
      1339.94780391
      866.99562425
      1005.61383279
      -66.24562581
      1802.43859701
      1267.52733940
      1410.65872751
      411.77807150
      -313.07747549
      1344.95499934
      -32327.05726218
      10109.79668250
      5605.80618706
      5779.21687861
      9920.97234827
      7072.56360643
      4703.66233982
      4739.34207987
      5296.38142774
      6673.81740310
      5129.67572367
      2583.23430153
      9700.45491833
      4735.01146496
      1091.34519592
      8667.70300304
      -5649.44421157
      2352.55262829
      132.96083261
      6140.54111797
      871.97237043
      1021.66938933
      2348.91002571
      4075.83939973
      975.66240128
      178.43120733
      -1450.68289008
      4183.16797340
      5367.94232098
      4206.66388603
      3590.28992030
      2677.61190343
      3316.21248478
      6370.34723210
      3795.01605832
      3510.74127248
      3871.42247032
      3246.78949098
      280.90069560
      -0.43778384
      634.88139086
      -363.71513767
      1971.36866983
      6570.68840086
      5616.79743076
      1455.24357065
      2914.85357849
      -3325.52784755
      3172.23367025
      267.47004769
      1962.92452540
      203.26401269
      621.59379965
      3847.11625599
      -491.08989451
      -2280.93223960
      -1306.72271537
      3879.98461190
      2850.19502871
      679.12796284
      553.00937058
      609.65560096
      1162.18920653
      -1417.63454926
      618.81723206
      6373.38538825
      2629.79017124
      6841.74337301
      106.22067888
      1041.52554458
      3207.26912867
      17485.02930268
      8400.54735979
      1297.46567202
      10750.53492689
      2950.77650585
      1878.09522396
      9147.49076134
      3355.41895838
      5658.22578538
      -2185.16224017
      3080.87854395
      614.75384263
      3565.69716901
      2567.00216243
      -587.32287483
      3095.09950360
      1350.08377763
      2428.90322256
      1449.31638136
      2609.56606655
      994.97166361
      1813.35374565
      59.07240093
      2819.64808025
      1440.29616602
      -2384.43148619
      60.21529044
      4141.45179332
      2404.49975233
      3587.67711578
      2236.48059891
      4295.73757499
      3481.08660190
      841.94053573
      1190.95848195
      512.90987441
      2241.01520801
      501.84810894
      4188.98016161
      4651.05629855
      3327.29677580
      2399.76525532
      2571.47093431
      2606.22767441
      85.83412726
      1003.47056810
      1752.68077156
      215.39180763
      2337.18747302
      1002.83897984
      4434.86667207
      423.52991695
      -2067.61763026
      -201.21329023
      792.04394389
      1018.20346175
      3687.55626360
      -1346.20157668
      2695.73245451
      3371.40420897
      -2493.90230990
      3246.51416383
      9940.75348249
      -3455.91748745
      4643.62746675
      20423.82615020
      -10943.01365434
      2551.37240495
      622.40124973
      14619.54698775
      601.99035151
      3678.52731413
      2751.65231642
      2726.21678423
      5493.89084581
      1396.34024532
      4473.93095996
      -3874.75866342
      3553.46848257
      6065.65768581
      -3546.82800809
      7278.26944062
      -1881.74131847
      1302.73812555
      904.75476355
      2011.06101405
      6412.05671601
      822.12131580
      515.23221055
      5533.04373678
      -771.99253555
      3805.88002641
      4397.41310057
      1668.37685190
      3131.11003536
      455.77338700
      257.30298739
      -1588.35673547
      -441.27209042
      -367.66815925
      2777.81153578
      -304.14314646
      1887.96019560
      -1932.33398780
      654.72783673
      -2785.72190451
      -446.15796175
      4267.18867486
      841.02883866
      3532.71615350
      2265.34870216
      2840.93171651
      2167.84297067
      1608.83978692
      0.35801172
      -2753.21715534
      -251.00987993
      -594.62657827
      -7.80574966
      -1419.75567775
      -929.06558259
      731.14003194
      781.08944682
      -3184.29085399
      -502.59113537
      80.15252897
      302.50111984
      21092.62943265
      11259.70684272
      4973.03534503
      9634.80348102
      2774.28571621
      2295.34740967
      469.95883339
      2399.52941143
      -853.92551857
      1385.18792829
      3443.21917442
      968.49560027
      4334.80095511
      -1215.40881748
      2786.96032914
      1362.67388374
      4173.85129882
      -4002.47791681
      3430.73810664
      2832.89551384
      -2484.79203393
      4141.26403314
      673.03926154
      4241.89059830
      2040.47594766
      964.11925173
      2523.49454730
      3963.05736624
      -641.21300578
      827.09226952
      3638.43271770
      6801.49947568
      909.25681090
      251.39937272
      -67.98244010
      106.85823348
      1315.78061197
      -1361.98211181
      3194.29083459
      1702.44539833
      -1085.48132161
      8.44221432
      44.07701007
      2081.29747937
      1887.54741438
      1724.61419903
      -235.75502355
      1820.85828552
      3893.24554890
      2471.67322527
      1224.06242730
      1831.97764643
      981.86598042
      -418.62211320
      724.48498450
      481.52477659
      692.65326391
      2737.74061332
      781.91399065
      -466.93900140
      2966.75180841
      -1535.38256791
      -233.34735564
      -487.84266480
      -77.82157022
      12.95963427
      35259.98601534
      8938.53709823
      3309.26761437
      7683.23333910
      665.20435289
      1848.61960825
      4809.93017950
      8704.13233600
      3311.85525841
      628.30395724
      6472.37065884
      -6777.31165003
      8429.43316865
      6553.94489199
      1446.13380012
      8769.47455090
      -899.02877688
      4964.76819380
      -2037.20048280
      -4100.30798760
      -2599.05431534
      1736.29930812
      3040.61437923
      8979.87426136
      7493.68126219
      6363.64505026
      543.88908068
      -612.59507670
      147.41373334
      2557.16288244
      5524.94475812
      4795.71642145
      1016.08710149
      2177.21391037
      3669.09619352
      -994.18481844
      2926.97668569
      6237.77254686
      3340.66669641
      2083.20185374
      -859.91826501
      -1325.55900179
      1344.87040265
      4795.05457988
      108.18934235
      2237.05575468
      1161.83362851
      1426.30136385
      1442.77479363
      -534.19837337
      -394.43727406
      375.81363351
      -534.62704787
      1754.54492967
      2513.17315894
      3761.47710244
      2529.07944802
      924.14351207
      1075.48518303
      307.60280373
      1048.37483116
      3188.36074802
      -1300.26001636
      163.32999466
      474.94261188
      150.82254992
      8395.17890538
      5992.76916147
      4029.69034124
      6286.44576864
      3059.34661849
      3481.89343018
      2442.65168201
      5352.43445344
      7367.23278045
      -217.04908543
      -324.91857142
      -5405.15627349
      2629.18331732
      11039.98064417
      9093.69442065
      285.50983735
      -3426.89710724
      -6942.89197988
      5332.43936509
      8717.23551350
      1604.68398529
      3803.79584892
      -1015.43953400
      622.96344626
      1317.40414496
      -4838.92921816
      3982.45268108
      -491.87159771
      6354.00399288
      1813.28202717
      635.77503476
      5604.74289005
      2744.13743925
      -273.05094649
      4909.67158877
      1543.74439845
      -1234.11668895
      3378.91631745
      -1019.41044056
      669.95146082
      -895.11132694
      2366.54578566
      3061.14028240
      3747.90764034
      171.12899711
      2834.21618628
      -1694.95635684
      2082.47025552
      -1254.89775062
      2727.21344998
      2345.62872807
      1280.42051177
      1822.19402284
      146.74880000
      2364.65552925
      983.53948150
      1271.75692420
      -1532.18080871
      -37.15308904
      54.59460520
      2551.74783695
      911.08443384
      -1043.87338277
      -1584.83565592
      908.55482665
      1768.55546253
      6282.97961528
      2907.25400573
      7571.00123236
      5537.36375772
      4764.69344526
      1465.84734717
      441.52735609
      2666.52772719
      1140.02886123
      2342.88272690
      4761.48866615
      5038.39838396
      2124.51748246
      2312.58922538
      3501.60732134
      -2029.38840669
      761.62552778
      5094.77117072
      3396.12386330
      6256.54451694
      2849.29461519
      5726.94952808
      2979.43517570
      3223.02553240
      -42.96328165
      3452.41847170
      4682.27754914
      -2652.70331939
      277.48657423
      2406.45789071
      4739.68450746
      2967.39793916
      2681.20197990
      -679.33847866
      3581.15980978
      1393.40740111
      -4122.07713858
      -2262.69055403
      2996.56563580
      -750.37067991
      5897.77400707
      1214.48881328
      152.94235566
      -773.03635431
      -208.91342503
      401.22793469
      -90.14825331
      2069.28924714
      2946.86515577
      1573.91146787
      510.28639021
      663.60016156
      1575.30946325
      -1261.49965148
      -1433.61355259
      726.75729001
      -62.65017394
      395.70492294
      -61.73064224
      500.00972531
      2954.41471791
      611.43127449
      718.40784237
      1304.46819356
      1187.81477212
      -730.87606660
      1459.87878040
      7810.14908178
      8351.38782164
      3285.68004620
      7748.91998770
      -5383.67998058
      -173.00633032
      1944.91898886
      17.77259238
      -3805.38986841
      -722.17693840
      -319.42718105
      2125.42813247
      5016.62883183
      2230.26388756
      4319.28062428
      -4503.86873503
      5138.52256289
      -1667.27195280
      -7437.03400816
      2078.50344202
      3621.01844798
      6337.03956699
      975.72463581
      382.25012675
      2505.47336808
      7386.17956652
      6827.57188541
      907.89744478
      2961.42529510
      1234.42296031
      -1231.12584122
      1025.72637910
      301.03820855
      2655.15343459
      4309.87502175
      4593.63496224
      601.24526004
      -364.02598336
      405.74228690
      2190.15000650
      -2679.65240047
      3911.89545555
      159.37387616
      1978.73163970
      -3727.57540192
      547.45312276
      2361.72190162
      2726.56507663
      1362.47383977
      2789.66028376
      1396.55525751
      1533.17476312
      1356.32633669
      1487.62070583
      1771.58784729
      -1566.59808509
      2673.90690333
      1677.93374592
      630.99426325
      796.05384062
      -329.99478749
      120.82705754
      -244.19791766
      -250.75320815
      417.67043365
      2657.39355754
      5892.26814611
      3880.85630247
      5855.14357463
      18989.09015349
      2987.75006406
      281.46881715
      1328.77333082
      1622.05107651
      4314.07717672
      2381.80927220
      -636.07865864
      2614.99019901
      -3122.92824953
      1484.32011197
      738.67963768
      2054.02370134
      -16115.19802598
      10413.60256672
      -2196.79171531
      10368.29038398
      1538.23378727
      -5034.28113397
      -4148.38938397
      1476.62199018
      -10938.51499153
      1823.27547439
      5746.91086736
      -902.26177907
      14965.99269083
      2901.96188322
      -3398.79459435
      1630.58208779
      726.74308177
      -1285.25781994
      1440.32270023
      -3562.26494740
      3361.68417758
      -2806.81663377
      -2598.79271761
      -1417.05132618
      -2755.95335287
      -2214.82957594
      1061.19387118
      3699.56104882
      -135.75608876
      2730.86390583
      1316.72426862
      871.27358134
      1603.01046421
      1171.86679956
      3765.71266916
      156.56649893
      -375.30871148
      -666.63348066
      -271.61151625
      -167.13922833
      908.85472578
      331.52039325
      1083.77245322
      -512.57082875
      -2.33568455
      590.69941856
      288.06791135
      354.08075382
      49.16673512
      21433.28324166
      2948.59722690
      4618.77690954
      4821.74577410
      3535.98902509
      6207.50290589
      -448.34306893
      -936.86046985
      4252.58192595
      5233.17669873
      9484.70179021
      4694.18086757
      -3498.63646870
      7867.87056499
      939.49645722
      5823.25780320
      -4622.42381586
      4518.40329624
      7349.88778972
      2318.33487504
      5497.34790691
      5573.00604243
      3444.96412050
      -1336.57708451
      -5191.53867450
      7105.86496104
      6531.70952088
      2037.70095655
      5983.84967229
      11803.80258112
      -3955.07585990
      5016.22730852
      3536.71165281
      5593.02504375
      2102.34484365
      4525.34414417
      -4094.50584582
      -3382.39190988
      -4778.73868433
      1398.72246892
      -4956.77356625
      2124.87833915
      -1297.41212905
      861.16482269
      -2579.27579306
      3271.86843570
      4930.03516865
      1239.86458934
      138.82522937
      1493.46869496
      2014.84082469
      2827.45194878
      2174.35741100
      -354.14682471
      836.50058577
      808.28087181
      1278.19188893
      -100.27346282
      830.22701013
      2608.07410924
      236.53975673
      712.26870464
      -71.07424712
      4.34619273
      595.13589583
      525.98764768
      -15944.42815073
      4849.33922446
      1433.95760063
      4974.70560340
      1632.81764479
      6946.05132219
      1957.91411567
      10796.70935694
      16739.33406881
      3300.61762858
      9073.50897247
      5413.75619227
      -15635.63259248
      8701.90353124
      5233.48707433
      12391.97674984
      -4218.01439867
      -10003.24902255
      8715.15006584
      10394.75461599
      4295.67551004
      -3529.18266721
      -959.71509726
      4999.89158950
      -1054.22062871
      1919.06675531
      4250.44017279
      -413.89755967
      3356.19732851
      2337.29776661
      5229.56871766
      -530.88346560
      -2300.71375690
      1353.79205270
      -6970.08309802
      2934.13276236
      5491.05726211
      -1493.62889010
      -609.82431750
      -3270.27517467
      2532.49983182
      14445.59431607
      6611.83197482
      -1491.12130901
      2997.21390498
      3098.90260132
      17.78333220
      3209.07444917
      2343.86765837
      -571.56560773
      1592.34683390
      1109.40718942
      1017.67426151
      2801.24068252
      1190.16738557
      -1780.91367336
      -235.79631738
      56.80757940
      702.86444812
      -436.27781249
      -2075.66611809
      -413.69450416
      -125.45579589
      427.10017584
      538.62382300
      -505.59674940
      -19965.59071168
      5511.83417964
      4233.57083696
      3431.27145902
      4079.65428839
      6647.08194446
      734.55050417
      5642.44826381
      8238.28190490
      14896.69584542
      870.95167496
      3571.49668321
      9678.98170585
      4488.55618389
      10953.92086216
      4666.52252561
      4863.40571024
      4418.79227254
      7815.14135257
      18513.82917823
      5185.06448555
      -4414.30120069
      -1230.63911616
      4405.02816965
      13069.77332549
      -363.96590730
      9468.96817095
      1082.49574602
      5914.37295739
      -2104.95318634
      11651.14144187
      3278.23449018
      10659.65335117
      5275.16263361
      9303.30292449
      5805.46788737
      3525.90122010
      8857.76760714
      -11665.94665622
      9332.78229940
      -16.07272258
      -1751.05406935
      510.44938361
      3252.41538694
      1126.66834494
      -3906.33328126
      -5.01893733
      2268.97448878
      345.78803108
      2574.77026135
      314.76880328
      1149.70071361
      1731.72754452
      1895.46902322
      498.58475638
      1076.00093267
      57.56610363
      -54.37330839
      794.71054029
      307.89180882
      247.83634170
      1090.75919026
      -1045.26639506
      -1672.56612534
      756.29739449
      81.83356637
      -20679.69231914
      3411.29019993
      7453.02760053
      2097.08716273
      4394.43847813
      4444.75881219
      4039.30005295
      5264.88792977
      -7165.72581227
      9382.28017912
      791.29906652
      5454.66325769
      5863.10249375
      12449.48963173
      13834.04904668
      1998.30933314
      7398.02839895
      17636.65934546
      -6986.67075667
      11044.47559783
      2940.18070885
      8141.82545031
      991.90935714
      2083.13405850
      2173.38763369
      3423.01330546
      -6915.16744601
      4839.64635349
      2058.68463870
      1114.08973712
      942.10359692
      9180.25404779
      -3901.73011803
      7232.56424462
      8410.45422456
      6134.84759303
      -3495.80571916