<?xml version="1.0"?>
<VTKFile type= "UnstructuredGrid"  version= "0.1"  byte_order= "BigEndian">
<UnstructuredGrid>
<Piece NumberOfPoints="5123" NumberOfCells="5123">
<PointData Scalars="Pressure" Vectors="Velocity">
<DataArray type="Float32" Name="Pressures" format="ascii">
      463.36011682
      7336.67431796
      10380.91646336
      -35561.77368429
      -25076.91863939
      19442.17015524
      -20482.92742986
      6691.01383900
      5758.89915669
      -37979.07088609
      11924.18795758
      -24929.46055353
      12672.43016691
      5396.55195188
      -24289.64383439
      2499.63382699
      -28172.76905675
      5932.31193759
      5435.66762883
      -19896.22698744
      6408.44351699
      2100.57387627
      4011.52793979
      2568.54572663
      -2817.06993561
      4027.05367070
      -1779.40983552
      -524.97096337
      701.73071714
      -533.21007842
      79.79841146
      -25226.43740384
      -19300.56300737
      -12806.21715939
      13624.87177699
      -4172.02807640
      1304.91228030
      -14798.00001579
      -2711.26185172
      -6313.44911387
      -2521.74258688
      -758.98557192
      5533.87133676
      -1402.90809160
      -5097.63846068
      8473.00620664
      -3095.88315432
      -275.12028320
      -1857.87426677
      -6591.47872906
      -2191.13851810
      -2601.38802462
      -531.53983392
      -210.68166816
      -1558.89795272
      840.57069398
      2051.18763887
      -746.76936713
      -1620.24917989
      -506.17327223
      -838.24006814
      -520.10278553
      -266.69982224
      -357.77966867
      108.08448332
      411.01404395
      6673.29108218
      17329.55357590
      8317.80440987
      8281.41817433
      3318.57776153
      4864.90729614
      519.34405061
      50.68963078
      -2833.67786225
      2949.58618756
      2955.30607946
      1724.45607495
      3275.15494422
      2710.12436728
      3361.22063322
      4500.05555240
      4657.39000442
      4392.12089073
      2422.31528834
      2595.33399512
      1721.09427352
      2025.39366848
      1722.28862790
      4156.15493931
      3051.75962034
      3087.69616013
      4057.14432066
      3196.25248127
      5151.63670373
      2646.82138387
      1491.29131941
      5239.84542892
      -2402.94713844
      -2212.66648324
      -374.14298508
      6305.21735426
      6213.86432751
      2038.49254454
      -169.07397154
      -1148.54375302
      1958.61224368
      1926.74147415
      -1434.23292771
      4706.27283798
      -1505.81378065
      196.46454988
      -353.45510965
      7107.86455023
      -3220.43681359
      1137.97574045
      967.71184008
      -789.89671567
      -5451.51921110
      -681.03569242
      1553.95837693
      1307.78215801
      288.51984184
      224.18784771
      2053.68982050
      -655.57655880
      -196.55579150
      -889.18678071
      603.39148188
      239.03098220
      -550.29420921
      154.23798960
      5515.79916276
      6331.13913307
      7559.15740515
      3023.97981923
      6296.03055270
      4039.84709722
      3013.27200888
      9053.48389375
      4518.82598775
      6011.70913677
      5363.66335001
      5044.41746288
      3616.09169084
      5387.91304802
      4794.35511184
      4129.42068390
      6510.44951331
      2561.18973185
      2479.17991313
      5276.06497891
      8982.80099877
      2842.00561146
      2600.30797698
      3727.61755793
      4549.03722165
      1106.34781038
      3374.06359067
      1206.30470775
      -338.84475277
      4184.89584914
      1363.02736869
      5108.24049236
      5105.91972169
      2675.90487581
      2929.01156649
      -308.34856817
      850.71480153
      -958.81787727
      2211.90610399
      2163.01001232
      1307.40272886
      1871.38105396
      3369.87910601
      -695.33638731
      615.40316570
      -1179.27203539
      4582.66637114
      2439.69778540
      8.39977438
      -4597.99277555
      1776.91233511
      1934.19216221
      798.50281112
      -85.22426648
      -821.24884280
      2370.25518506
      -1953.40791879
      200.06886511
      46.37400689
      -149.28463031
      2062.60418578
      409.17870632
      -1820.41267872
      -2503.46975898
      530.37887066
      2324.33009503
      7988.61446387
      6739.24865086
      6869.97036016
      6133.87443862
      4628.35013795
      7731.39107462
      7555.43444631
      4208.05842370
      2633.15319238
      1547.93132305
      5780.54947732
      8362.76083291
      7696.99965894
      5124.80931507
      2362.90271112
      3590.16149164
      6294.31634060
      6958.06268811
      4840.90743427
      5135.76992799
      3477.74008577
      3620.57182510
      11024.76318892
      8987.23363951
      3495.60080217
      4354.59128255
      2968.35341619
      3054.99376633
      4011.19923973
      3276.67591193
      -1445.96471773
      2744.10231647
      1123.21095332
      1797.75170794
      6116.54198845
      1177.52976304
      3042.24260403
      42.37335707
      6085.80494714
      6635.94695742
      2512.93617533
      -2650.54338368
      3047.97454822
      713.75273756
      6700.44702152
      296.11961520
      -566.90302780
      -1735.98096600
      7762.95128973
      4800.30756681
      3529.35196899
      -8892.16724809
      962.57586805
      1133.02428949
      3614.77747289
      1600.79575250
      598.98073688
      643.01362587
      4762.93849124
      3357.92097280
      -174.49086920
      -1246.32445142
      2423.73765819
      -415.98901687
      -1427.91719692
      1255.30309904
      6252.02990284
      6785.18453532
      14541.21054475
      16871.27871393
      9429.15523909
      18575.40225952
      8157.86214481
      5955.98453218
      2368.15971973
      6026.91974942
      2943.05165439
      4110.34678579
      4958.71027503
      5663.03831977
      11250.65662343
      7783.72562147
      8267.78843977
      5122.66694276
      4713.17148609
      5887.46638515
      5969.88231405
      352.02517795
      4590.40929537
      4770.16454327
      10861.70998565
      13048.01110163
      3668.13320506
      3141.41729529
      3415.80795690
      3154.06734995
      4947.59879067
      -484.32820239
      3824.63661803
      4339.19591615
      7291.69147468
      2510.28430611
      7230.50830822
      5481.19937833
      4164.10981981
      3256.03748584
      2668.14517087
      -962.06795585
      4657.14960181
      1361.93478522
      245.99793620
      5817.67709491
      6286.30041224
      2783.32422885
      1259.27323784
      1456.36213928
      -1385.25519442
      2205.89007588
      2867.94939247
      -1088.60964339
      1304.59984236
      983.39594893
      329.59742469
      2524.45421549
      1628.84785863
      1562.40380803
      2110.46354948
      2838.73542930
      2633.01831067
      4268.11213285
      5.77674577
      -102.82289320
      -17305.06999468
      8825.32368453
      12151.34369488
      3122.20870824
      14604.33286500
      1475.90575024
      11336.81925528
      13592.77185753
      7041.46931832
      9624.63783329
      8587.76922555
      476.31193589
      6121.98302477
      7272.00958608
      4692.55442886
      5133.29294266
      7865.32517874
      7317.47312637
      5914.69891536
      6716.99631917
      3946.66251287
      4299.35468698
      2763.96788809
      9035.50451471
      9885.63936063
      2077.90301639
      8986.24663655
      4654.28105210
      1885.55330626
      2516.91207570
      869.96895260
      3628.48278045
      7038.57833124
      6016.33664612
      4932.79000480
      6652.45220285
      -1931.49073728
      2466.84188136
      3061.05451916
      4260.28511505
      1917.12033819
      1996.51750921
      3936.63702762
      -124.16181061
      2967.64305291
      5457.97875333
      3921.43486994
      958.72730692
      2543.65191478
      1788.12224298
      2927.18667020
      1147.82616248
      2991.36799203
      -5206.45676683
      2848.78600481
      -1116.25507486
      1151.79461430
      915.83515104
      2387.03452549
      1170.85164637
      2494.33995215
      -1477.90496280
      564.21833934
      1124.11080147
      294.75085552
      204.31083574
      -28807.02041058
      9590.27032851
      12640.04238249
      6251.55779277
      6458.73184110
      8279.35260777
      2442.91415245
      2209.11736600
      6563.92699584
      5659.66256054
      6333.05952532
      7154.43539708
      9466.23106645
      8503.85661384
      1067.93873001
      8164.51994064
      5298.80647026
      5072.68914518
      23034.12228863
      6478.57215289
      444.41862578
      -2530.33263164
      -19.63370979
      9998.81117589
      1632.85811084
      6723.51994124
      4914.02378505
      8541.87389150
      6516.76659441
      3171.05872767
      15525.68656247
      1337.13604113
      7317.44073977
      4925.79913685
      7279.40310070
      4829.00178606
      2865.83384813
      5236.04530783
      7598.42522731
      2673.59754205
      -290.48478669
      4158.38748479
      3086.07914890
      7100.50147560
      5637.10802230
      -763.72198470
      4172.14310183
      3203.22073296
      4418.50063954
      -507.32132278
      1567.88050524
      -1435.39875483
      136.07623526
      1792.57313739
      5590.76312366
      -337.43066897
      2548.05728962
      -541.31701297
      3185.35337316
      3895.02698075
      1326.74316536
      3756.55835940
      -1142.15450596
      4458.15251762
      951.97015008
      -125.58220286
      18629.83500899
      12082.81402798
      4785.52135988
      635.25880830
      2247.21102934
      2949.60529559
      8172.83569991
      5942.52182088
      11475.29129548
      11214.32863183
      14648.81771482
      7648.21719526
      3606.87724618
      8222.70841531
      5666.84985306
      -3379.86360034
      938.14638957
      3154.41545062
      7413.21554780
      4207.57498983
      19169.32200299
      11629.25860294
      2922.45846411
      3605.16720288
      8509.86177828
      -2728.08790602
      1425.61332229
      1150.85050391
      10619.21144596
      7241.33528882
      4893.17085267
      1875.36573552
      3771.09198259
      3959.29770062
      4731.54742218
      3655.46815024
      9743.89322624
      -100.89627207
      4162.28005594
      253.43560270
      3806.95058725
      2287.37072855
      5597.05329319
      2905.54752718
      4991.04677733
      2174.03037195
      1936.83884482
      4008.13048348
      3968.08728522
      4624.94992347
      1008.86167376
      -494.45307002
      4882.38090380
      1167.16736426
      -624.76535118
      2640.22826895
      592.61958985
      1735.54201523
      1219.24520485
      3411.91675153
      3663.42773812
      2582.67620852
      -1430.06639854
      3002.62427286
      -6.31851160
      -403.57242031
      -18063.76538625
      3456.13985652
      2855.35915450
      11626.41465334
      11499.73035111
      2398.71773175
      5690.49529111
      9505.22043787
      16375.40805246
      7167.51180558
      7603.11190979
      4661.23962667
      3580.34893150
      -824.11387226
      4463.41954820
      2267.30657321
      8745.18961770
      11944.08017430
      1983.99330772
      5895.97525297
      10474.18915073
      7276.40055087
      8401.93419462
      5421.44529038
      3549.66960848
      1993.30365345
      4442.09055761
      2348.63926908
      3090.23610190
      9660.71226965
      903.92101701
      4321.62879762
      5464.89487534
      5965.32730430
      10612.20847617
      5066.18239796
      4752.48783518
      646.22490360
      3635.33773294
      4982.10177119
      3343.28773921
      5468.71427681
      2825.80669221
      4313.27862254
      2225.44311504
      2454.38152747
      2938.35558254
      2464.77392826
      4200.69228206
      3686.70736674
      5058.58427124
      952.93091194
      4039.21000420
      705.12086225
      1401.05631304
      2257.01739474
      396.38379891
      782.06548715
      4215.19020994
      703.24667132
      2273.17267409
      1089.90419227
      -184.06922912
      231.39606772
      786.76842489
      470.83787832
      -35532.71009678
      12484.65519017
      28937.24364307
      10157.56549284
      4243.16738341
      4862.64886587
      6727.85138915
      13032.23531637
      6600.79808263
      10921.08193858
      3994.87083397
      5023.26604646
      4333.01716621
      1956.14025033
      5229.78235037
      5540.55564382
      6378.24451154
      11463.32347571
      4931.45348134
      6923.68982469
      6151.55612653
      2528.18206473
      6015.10369576
      3744.78514388
      3188.14842574
      4209.06946312
      2072.65940660
      2648.43554662
      4262.65780070
      4592.77475096
      1519.06056892
      10456.02894235
      10178.75795970
      3098.22905446
      3907.71492481
      1663.85120147
      5788.96688946
      1858.13865847
      4866.12499841
      5187.53981199
      6197.24903682
      4996.01003342
      -1464.62861026
      2479.52888080
      4577.50102021
      1632.54308585
      2253.49054174
      7689.51327678
      3339.96843028
      -45.71571590
      1642.65902227
      4833.85779247
      1815.59629729
      3581.41911981
      2999.52325046
      606.09531241
      1497.85411262
      3906.61954529
      1767.75940244
      4387.92237260
      617.08330478
      -1895.93883251
      2277.43988692
      530.76767922
      -432.52860963
      -45.98172040
      -32327.05726218
      13657.42265807
      3568.86173572
      6628.24120861
      6456.81611524
      13354.64261514
      9332.56884958
      8497.21521653
      12061.37623522
      2826.44517683
      17430.99769696
      1164.53615496
      8659.70404589
      3513.53950374
      9376.70428365
      3123.90709582
      7099.46664038
      9615.19182550
      4548.30218825
      7057.16634058
      4385.47384276
      -2871.27295036
      -1684.49745473
      4213.48081185
      6469.62402750
      1889.00627479
      3649.14342916
      4874.16135156
      8516.16826714
      792.48474976
      1916.07995922
      6808.60195835
      5386.65875229
      2026.41917847
      2005.36635204
      5430.94364962
      6275.58638712
      1743.57328957
      4945.22032890
      6532.28700981
      5450.22715727
      1361.34088839
      -1139.20649436
      3217.03235717
      6809.24368905
      2088.09463728
      541.39481731
      -90.83846994
      3486.20784671
      471.18322264
      397.99714156
      961.71411540
      1094.70797637
      2892.78611919
      -2.31536106
      3606.32431028
      1108.28612549
      1328.45238053
      1871.97738627
      2804.83411851
      2464.24122791
      2711.10012566
      2065.11828173
      -861.58675328
      505.19486342
      481.15765605
      9397.14536182
      6371.35095804
      -2289.28148556
      8526.11296870
      2009.26599819
      19469.98745064
      12768.26100999
      4525.64540582
      11608.86959910
      9771.49394353
      -1183.95265638
      7836.23101210
      -2183.40139124
      12775.71918566
      1210.07096073
      13881.66966832
      983.37706598
      2656.90022604
      5819.01113232
      3029.21394308
      6041.76357707
      1119.34169761
      2603.99303117
      3710.29350318
      3394.62230963
      6863.91896043
      2719.55288748
      -1108.02666256
      8346.87805059
      7587.51733264
      4083.13904002
      4131.52966757
      5056.63158185
      4359.80868416
      2856.34983997
      4851.97564927
      6064.64200325
      2002.03606964
      2847.35055012
      208.57464042
      3739.42330820
      1404.49967584
      4337.07924692
      4443.96559954
      5548.72173545
      4350.13818242
      665.73780422
      4697.14494898
      3026.74499083
      2818.72625376
      -531.74902124
      4415.73838295
      975.32521957
      1981.52509046
      3047.51460891
      2007.80592338
      -215.61841033
      3109.59682515
      4905.45735823
      2509.55825971
      3171.20183659
      2340.41655465
      1542.66302341
      -3266.97374925
      2912.30706044
      2827.37286435
      10302.27518693
      10267.88406148
      2789.82005541
      3143.51694375
      11136.18709511
      10534.77104657
      5973.85712408
      20046.37599698
      26808.45547621
      10068.02663984
      5994.79578201
      21167.88218476
      3233.74570260
      13154.41029622
      5392.20513812
      1523.23498637
      1648.02250233
      -2402.49801187
      4146.49255325
      3015.96222804
      9715.88716903
      -462.20729400
      8160.71415214
      5184.01052698
      12909.84578394
      6447.59634974
      5606.35311654
      6514.44707968
      2138.62455203
      2137.51733548
      -888.68868386
      1384.80335232
      5843.54219749
      2286.93398952
      3273.77099824
      4529.43519007
      6622.46281489
      3560.95822691
      4600.64589120
      4407.74830612
      6001.76294174
      3495.67079520
      1285.24939659
      4409.59699520
      4077.35039403
      4081.32474217
      2760.27700420
      2615.30068858
      1093.04904853
      3687.85434878
      -1284.41299379
      2971.82479691
      3303.77427234
      2943.86362840
      3934.54977734
      2411.55737930
      2244.13730597
      3283.77238037
      880.32116204
      2663.09292595
      4050.25030633
      109.16107645
      -549.85823263
      -2767.54450918
      901.80119667
      2679.82629186
      10931.32740739
      7792.62172709
      7064.43252455
      26405.78328242
      15656.17286935
      2025.16097812
      8084.85194424
      -3874.67364864
      7720.35279530
      1987.05190768
      6180.42208012
      8907.28870881
      5431.69378476
      3922.86231660
      4652.30472504
      -8289.12326286
      5747.92228922
      2517.12173211
      2544.26427718
      11310.61846292
      3540.04272868
      4887.27785050
      -988.94500771
      -632.93047281
      1085.05657867
      1078.67305100
      2273.68521311
      2469.75502633
      5479.57690642
      6067.36604027
      52.60407126
      7344.62810118
      1803.75388371
      8653.30367425
      8542.21861535
      4904.99279022
      3625.96384706
      1213.02972343
      1538.22153081
      2372.34877963
      4223.60882933
      456.15316017
      1245.32415003
      2651.26379039
      4650.06400065
      3159.89997872
      455.64204769
      2323.61161441
      2996.40689055
      5201.35166399
      21.53458932
      571.52846985
      3468.70641399
      4042.13785038
      1313.47786280
      1818.64768716
      138.79024781
      1370.22453904
      1079.07784807
      2834.42441718
      1975.78522559
      959.25864846
      678.22751467
      1010.85617382
      1405.98963669
      -5251.16412173
      14235.16830371
      9055.54434354
      7747.95110932
      11399.35037353
      -310.73314740
      9309.27708591
      3045.26816949
      12151.54744417
      13442.38880560
      104.53753244
      6037.42697818
      -462.28640400
      946.39007866
      4362.39377128
      10400.70995098
      2741.74050936
      1573.49004722
      4966.85700869
      4559.73324616
      -1333.10270439
      7152.92420899
      3602.29971220
      -4102.48529027
      8303.41041581
      2984.02455513
      2702.67324909
      3037.82068966
      2814.40880333
      1100.69514706
      1288.84626117
      7048.27834739
      1701.10538316
      -2435.90437012
      3615.38946828
      2734.09944418
      4790.23615918
      2616.58488335
      2585.58639537
      2735.06268396
      1462.78857398
      1730.10156884
      4895.68468273
      5409.44998660
      3855.99133304
      3999.30670017
      5564.03603991
      4616.87062516
      2532.26996563
      1191.36431968
      3360.08132436
      2134.29936955
      1252.42734229
      1308.04959593
      3507.02959407
      3323.95477898
      1800.30429483
      2596.13049911
      4154.62905468
      2856.25772784
      1212.54514706
      2579.37572901
      2672.78395393
      2491.57327690
      -1840.10891827
      1173.72217995
      1951.39148089
      8584.52986324
      11428.96617388
      -2826.71089549
      7843.14510972
      6947.67193979
      4975.32877094
      231.29808797
      -1871.52741286
      4095.91432971
      661.65613534
      2957.95915169
      2959.68893594
      4397.56327310
      7319.41670065
      3290.80299749
      -227.20800451
      3006.16348403
      3915.45396567
      -2031.40435341
      -229.46375041
      799.35727556
      6817.41215956
      2898.09900069
      1662.77040130
      2520.02741034
      1489.49602004
      3757.89986396
      4822.74072847
      726.05811214
      823.31105335
      4100.01624466
      -2317.15042115
      4453.15888895
      7541.00598624
      3271.66462618
      1654.45832873
      1956.93498363
      3304.21756686
      4898.38632383
      1168.42320246
      1987.71501889
      3839.74241023
      4158.14465337
      -1559.53995043
      2083.72733868
      2239.95798135
      3715.89648280
      3109.62378153
      -1078.76948357
      4095.13421785
      3747.78543579
      2458.69276871
      240.63262004
      2050.11892045
      2093.05132670
      2650.91295703
      1100.10521560
      1196.02028747
      4372.53255518
      527.25228815
      1855.59216331
      3815.66115224
      4418.90140909
      -2978.52649860
      124.57407182
      426.39247848
      10744.76781558
      8117.37342537
      13597.50812683
      7335.08257679
      6579.95483202
      -4284.49487055
      951.85550700
      7168.63497206
      5277.90633116
      4116.87187513
      10828.01227200
      6687.60561549
      1112.17655380
      -223.55344877
      5805.72205796
      2881.37699446
      3834.07987472
      5766.03234689
      4694.27698425
      -2693.62528732
      10368.30511348
      2460.51493081
      4628.34699065
      2797.50108919
      2651.88158922
      5315.41892195
      6025.98318540
      9387.97296194
      1490.44736226
      4098.81280147
      2311.08665213
      1257.32625774
      212.21822877
      1539.60840816
      4809.56155613
      627.89958796
      7223.82027183
      3926.10126851
      3323.45051002
      3707.27235558
      2753.96042933
      3477.64461447
      906.47876380
      2510.94875854
      -1245.43703641
      75.16901186
      1487.11579303
      2941.91462229
      2529.56795842
      1612.21541662
      5515.36711319
      4130.57434744
      -1857.72187593
      -2619.29993525
      1352.76885645
      2111.25288907
      5617.63695115
      1109.33620867
      -783.03179937
      1089.18745986
      -235.56898413
      1646.64339250
      582.27320220
      -477.34377968
      342.00141781
      456.13332598
      16271.61658689
      5763.50939899
      -6505.07741756
      -8022.92715461
      -5300.95202306
      2501.64816580
      4496.20122692
      2709.89777808
      3160.59011519
      766.61769674
      4924.42575747
      708.75698020
      2847.00836419
      4305.54193454
      9645.54882114
      -6698.37511739
      7272.22950684
      1300.76057707
      3537.39536562
      -5552.01255211
      1694.71906192
      566.87818386
      2017.98963587
      5303.45025593
      3787.28337046
      409.96580076
      2229.81890762
      6151.12773397
      4401.31048511
      3576.52768967
      3247.68996564
      1570.76754067
      -2695.10797247
      541.49453057
      7040.76856662
      3305.21219144
      2254.10818246
      2110.16364199
      3697.16364337
      6245.60335881
      2569.43931725
      1466.01250890
      3360.49200285
      4539.93418460
      -32.72697897
      2091.77757881
      155.27125056
      760.87165210
      3718.28342169
      3027.34144522
      3129.94291334
      3254.67470901
      295.36998512
      -4650.22897873
      3079.19417673
      1453.05695784
      3647.65529161
      -121.80320501
      -303.55527981
      2000.69586060
      246.82312986
      3846.79470002
      1241.51701792
      -1187.35990298
      -885.22502439
      -381.56809178
      17054.06340855
      10752.20471597
      9063.16305796
      3450.05774806
      4825.26657285
      11346.74270644
      2814.71976416
      4939.26219642
      -973.78926406
      -608.68289155
      6352.39687259
      1869.32744913
      -2415.68545387
      94.61851920
      -1810.15386940
      -2737.54487701
      7033.81503676
      2253.70537902
      7331.89587868
      3428.57275869
      924.93727458
      2712.15605998
      4121.90334223
      3499.56329790
      3596.86701602
      6638.36831918
      2864.39923019
      3332.99864342
      2766.70571371
      -4270.53129189
      345.54675918
      3410.93242536
      2907.14466303
      -6649.69043718
      277.88539079
      -26.48191503
      3891.98179457
      2350.89235206
      3127.39087549
      -526.57896959
      2404.07634176
      4022.75610850
      666.62506988
      3797.06849673
      -2222.07829138
      -3288.15389340
      1942.35814684
      -1171.74951099
      474.13915534
      2309.20282435
      1070.39635226
      1318.59959290
      882.40642595
      -2158.46429387
      311.79571329
      3338.68809078
      3510.91832143
      2405.38133106
      634.23193470
      1889.94537107
      2825.60962910
      321.63042056
      -668.63844551
      -915.14511368
      812.62266732
      350.02030792
      -2096.03041432
      1721.20031099
      5019.14297820
      8690.66437612
      860.64921690
      -3182.33792816
      674.11497409
      2899.68816520
      1843.78799028
      3894.93127339
      4552.70862495
      1930.02354988
      3891.45002494
      1538.78420760
      2189.93600909
      8052.08857431
      -558.47455854
      8012.62468958
      -2009.66329900
      -157.77824734
      -40.92307341
      1715.60784486
      6454.26744984
      1616.93678993
      -212.68893072
      3775.35585569
      3839.90857267
      650.44478692
      1681.14875681
      4702.58546751
      2533.87717751
      884.41736409
      2278.31770804
      2737.37512403
      457.62788594
      2812.03238261
      2006.12252449
      -446.76256923
      7138.91113145
      5656.56856920
      5510.33172043
      1172.63927208
      4022.14424961
      420.11362166
      -119.95562441
      2797.82371235
      -1147.95847194
      -1903.95639925
      1390.66627405
      1304.29105413
      4128.00655563
      1646.96267856
      478.11708927
      1185.25042662
      2627.29682085
      1319.15605718
      3001.46940395
      2345.70989719
      1212.01544086
      -1673.70312593
      486.15520425
      3233.33170853
      -38.60383710
      -43.08736743
      226.93586903
      158.27446278
      7453.16324473
      8784.94465566
      -1944.63126468
      2796.29502677
      1864.37316886
      5685.71122363
      -1060.21622128
      1143.70808525
      -4357.28073854
      -3420.26886245
      -1768.36961620
      1033.66270189
      -2639.43125426
      7748.13472464
      5773.09657782
      -2216.18505770
      3449.94042613
      8485.19602909
      -264.74785027
      -2053.27592339
      272.25718973
      -194.82978121
      1973.01953493
      2945.46848947
      -1130.17913329
      1687.68899011
      5939.02184797
      -2172.34409586
      -512.17731588
      1384.22424427
      533.67783563
      3207.24371530
      3769.19677650
      2118.09023994
      -83.53314857
      -658.54975040
      1732.98056041
      -666.37619432
      2552.67882551
      1622.86114683
      -1442.04768451
      -1013.12564603
      2644.02748797
      2447.98983792
      429.86340876
      1324.37792265
      954.17841031
      -379.59758403
      1075.79828562
      1336.34401613
      2140.09151113
      3408.76771523
      688.33116541
      1407.73977237
      -443.06378233
      2192.12787394
      798.29153922
      1368.68642231
      453.68004353
      -378.84879032
      3150.71864076
      -46.86671395
      1148.62608685
      27.34313350
      66.62091785
      -1356.80830038
      -19965.59071168
      6572.79193303
      4775.51788845
      -666.12402601
      2027.63780675
      6376.68910722
      6470.25153847
      3361.47039970
      1900.01449692
      3950.46935934
      192.02889319
      -3872.83599224
      -715.99896468
      2502.13470646
      -2219.10981065
      2051.88774412
      2277.49635819
      1837.55147269
      6776.48063666
      2519.27948417
      456.46059705
      205.09461283
      1939.48090401
      2768.83100573
      6675.27480998
      -2871.20939178
      642.01450397
      3382.53937375
      2196.02262571
      4473.96480948
      2603.64339506
      3033.96604784
      2031.66425500
      5655.39308869
      3566.16215219
      693.33718713
      -101.57949329
      -1224.18588205
      999.59138259
      1145.67564546
      1127.88746729
      -1076.76605587
      2514.52233281
      3052.63634472
      -3828.08560415
      154.51542522
      2021.10343912
      897.64342269
      209.77010073
      597.62481599
      565.56101825
      2988.29638042
      580.82109720
      327.93835940
      2534.81794274
      -383.86331453
      1883.85333897
      -666.96462847
      -462.10871344
      -308.57738416
      -420.19689264
      1849.13154345
      -1874.46858920
      224.89997146
      320.66927881
      599.36151603
      -20679.69231914
      3195.96882286
      7755.13192921
      -793.37969664
      1026.35013615
      7229.40388948
      2655.67279008
      3263.37028609
      2490.41153454
      1140.36061441
      8488.60583501
      6869.88424143
      -9771.43513970
      10767.27805921
      -8349.99640645
      409.90947423
      6065.49125125
      13167.09547469
      14152.99740441
      611.84706168
      1669.15208966
      16403.72621277
      2651.50825100
      14065.94317746
      6695.87467776
      -2241.02995746
      575.57707328
      3159.06917525
      6211.49645584
      4296.13460392
      2687.45193405